TITL p-1-firsttry_a.res in P-1
    p-1_a.res
    created by SHELXL-2019/2 at 13:33:49 on 21-Mar-2022
REM Old TITL p-1-firsttry in P-1
REM SHELXT solution in P-1
REM R1 0.168,  Rweak 0.021,  Alpha 0.075,  Orientation as input
REM Formula found by SHELXT:  C57 O16 F113 Al4 Ni2
CELL  0.71073  10.6594  20.6268  23.5458   73.125   89.828   80.746
ZERR   4.000   0.0030   0.0058   0.0051    0.006    0.013    0.010
LATT  1
SFAC  C  O  F  AL  NI
UNIT 112 40 220 8 4
EADP F8_1 F6_13
EADP F2_1 F2_13
EADP C2_13 C2_1
EADP O1_13 O1_1
REM Restraints for Fragment oc(cf3)3, Nonafluoro-tert-butoxy, [(CF3)3CO]-
REM from: TURBOMOLE V6.0 B-P86/def-SV(P). Please cite
REM https://doi.org/10.1107/S1600576718004508
SADI_CCF3 0.02 C1 C2 C1 C3 C1 C4
SADI_CCF3 0.02 F1 C2 F2 C2 F3 C2 F4 C3 F5 C3 F6 C3 F7 C4 F8 C4 F9 C4
SADI_CCF3 0.04 C2 C3 C3 C4 C2 C4
SADI_CCF3 0.04 O1 C2 O1 C3 O1 C4
SADI_CCF3 0.04 F1 F2 F2 F3 F3 F1 F4 F5 F5 F6 F6 F4 F7 F8 F8 F9 F9 F7
SADI_CCF3 0.02 O1 C1
SADI_CCF3 0.04 F1 C1 F2 C1 F3 C1 F4 C1 F5 C1 F6 C1 F7 C1 F8 C1 F9 C1
SIMU_CCF3 O1 > F9
RIGU_CCF3 O1 > F9
SAME_CCF3 O1 > F9
SIMU 0.04 0.08 1
TEMP -173.150
L.S. 10
more -1
BOND $H
LIST 4
OMIT -4 3 16
OMIT -4 3 17
OMIT -6 3 13
OMIT 0 5 20
ACTA
FMAP 2
PLAN 20

WGHT      0.0733     16.6680 
FVAR       0.19071   0.89000
NI1   5   -0.150040    0.750163    0.309103    11.00000    0.02483    0.03998 =
         0.02630   -0.00993   -0.00215   -0.00467
O1    2   -0.032641    0.669132    0.431994    11.00000    0.03387    0.06360 =
         0.03115   -0.00066   -0.00261   -0.00819
C1    1   -0.076116    0.700250    0.387217    11.00000    0.02598    0.03972 =
         0.03476   -0.01004    0.00550   -0.00948
AL1   4    1.017255    0.981582    0.577850    11.00000    0.01421    0.02472 =
         0.01671   -0.00673    0.00043   -0.00622
F1    3    1.000000    1.000000    0.500000    10.50000    0.01857    0.03145 =
         0.01666   -0.00782   -0.00043   -0.00719
NI2   5    1.367330    0.739602    0.796371    11.00000    0.04796    0.04274 =
         0.05020   -0.01744    0.01876   -0.01478
O2    2    0.069663    0.821706    0.255446    11.00000    0.04036    0.05452 =
         0.03684   -0.00580    0.00378   -0.01523
C2    1   -0.009982    0.795678    0.275147    11.00000    0.03288    0.03878 =
         0.02928   -0.00740   -0.00438   -0.00097
F2    3    0.500000    0.500000    0.500000    10.50000    0.01966    0.02754 =
         0.01538   -0.00833   -0.00005   -0.00788
AL2   4    0.507552    0.521391    0.567761    11.00000    0.01601    0.02297 =
         0.01617   -0.00663   -0.00029   -0.00623
AL3   4    0.492495    1.016975    0.922167    11.00000    0.01272    0.01974 =
         0.01392   -0.00552   -0.00049   -0.00357
O3    2   -0.410142    0.806627    0.344358    11.00000    0.03396    0.10773 =
         0.03827   -0.02399   -0.00227    0.01016
C3    1   -0.316043    0.784858    0.330954    11.00000    0.03556    0.06483 =
         0.02290   -0.01231   -0.00749   -0.00455
F3    3    0.500000    1.000000    1.000000    10.50000    0.02001    0.02757 =
         0.01230   -0.00702    0.00223   -0.00745
C8    1    1.432204    0.680872    0.872950    11.00000    0.03303    0.06049 =
         0.05653   -0.03026    0.00659   -0.00610
O8    2    1.469931    0.645992    0.917525    11.00000    0.03945    0.08420 =
         0.06072   -0.03292   -0.00231   -0.00068
C7    1    1.324661    0.673180    0.758728    11.00000    0.05494    0.04949 =
         0.03603   -0.00530    0.01158   -0.00821
O7    2    1.300357    0.636809    0.736174    11.00000    0.07392    0.06348 =
         0.04296   -0.02178    0.00478   -0.01944
C6    1    1.237834    0.801396    0.819670    11.00000    0.06675    0.03432 =
         0.03993   -0.01563    0.01354   -0.00945
O6    2    1.159217    0.836424    0.832183    11.00000    0.07548    0.04609 =
         0.06331   -0.01629    0.00836    0.00105
C5    1    1.504708    0.780285    0.753228    11.00000    0.04770    0.03914 =
         0.03726   -0.01827    0.00256   -0.00837
O5    2    1.585189    0.800762    0.729426    11.00000    0.05876    0.05902 =
         0.06515   -0.02584    0.02499   -0.03108
F4    3    1.000000    0.500000    1.000000    10.50000    0.01893    0.02442 =
         0.01829   -0.00870   -0.00288   -0.00405
O4    2   -0.207939    0.689577    0.210361    11.00000    0.06341    0.05380 =
         0.04057   -0.02211   -0.01035   -0.00288
C4    1   -0.189858    0.713805    0.245290    11.00000    0.03579    0.03414 =
         0.03169   -0.00508   -0.00250    0.00314
AL4   4    0.993569    0.464341    0.939939    11.00000    0.01338    0.02281 =
         0.01758   -0.00827   -0.00106   -0.00481
RESI CCF3 1
PART 1 21
O1    2    1.175061    0.970708    0.596537    21.00000    0.01716    0.05675 =
         0.02690   -0.02126   -0.00121   -0.00852
C1    1    1.272867    0.996878    0.614814    21.00000    0.02135    0.05558 =
         0.02383   -0.01192   -0.00390   -0.01449
C2    1    1.261043    0.992438    0.681258    21.00000    0.02890    0.06170 =
         0.02731   -0.01593   -0.00078   -0.01638
F1    3    1.291643    0.926396    0.715349    21.00000    0.05582    0.06474 =
         0.02963    0.00053   -0.00934   -0.02249
F2    3    1.336749    1.028327    0.699389    21.00000    0.04125    0.07832 =
         0.03757   -0.02524   -0.00619   -0.02559
F3    3    1.142146    1.015573    0.692911    21.00000    0.03399    0.08414 =
         0.03205   -0.02566    0.00257   -0.01937
C3    1    1.272451    1.072498    0.578303    21.00000    0.03958    0.05741 =
         0.03049   -0.00977   -0.00003   -0.01991
F4    3    1.239257    1.081608    0.521978    21.00000    0.07377    0.06889 =
         0.02946   -0.00125   -0.00637   -0.01927
F5    3    1.189467    1.115711    0.598407    21.00000    0.04275    0.05357 =
         0.05379   -0.01660   -0.00783   -0.01465
F6    3    1.387557    1.089978    0.580792    21.00000    0.04398    0.07199 =
         0.06578   -0.00423    0.00274   -0.03208
C4    1    1.398690    0.951023    0.606646    21.00000    0.01970    0.06824 =
         0.03744   -0.01906   -0.00579   -0.01139
F7    3    1.427875    0.966544    0.550336    21.00000    0.02736    0.10155 =
         0.04201   -0.02681    0.00612   -0.01735
F8    3    1.495486    0.958450    0.639434    21.00000    0.02383    0.08481 =
         0.06006   -0.02456   -0.01769   -0.01018
F9    3    1.387431    0.884834    0.624365    21.00000    0.03238    0.06800 =
         0.05177   -0.01896   -0.00947   -0.00560
PART 0
RESI 0
RESI CCF3 2
O1    2    0.932418    1.049242    0.595821    11.00000    0.03080    0.03641 =
         0.03211   -0.01846   -0.00620    0.00230
C1    1    0.827103    1.097926    0.588464    11.00000    0.02572    0.03114 =
         0.03426   -0.01197    0.00344   -0.00404
C2    1    0.766738    1.091260    0.649163    11.00000    0.04839    0.04327 =
         0.03810   -0.01472    0.01258   -0.01361
F1    3    0.699691    1.040478    0.662978    11.00000    0.07774    0.07491 =
         0.05070   -0.01226    0.02216   -0.04658
F2    3    0.688393    1.149091    0.649431    11.00000    0.06421    0.06328 =
         0.05584   -0.02803    0.02735    0.00122
F3    3    0.855535    1.078350    0.692533    11.00000    0.07421    0.05383 =
         0.02976   -0.01579    0.00978   -0.01754
C3    1    0.868340    1.169450    0.565292    11.00000    0.03416    0.03683 =
         0.03031   -0.01233    0.00246   -0.01057
F4    3    0.950294    1.170097    0.522743    11.00000    0.04193    0.07066 =
         0.03019   -0.01349    0.00709   -0.02591
F5    3    0.926763    1.184781    0.608373    11.00000    0.05366    0.04323 =
         0.04157   -0.01600   -0.00531   -0.01849
F6    3    0.770689    1.219327    0.543517    11.00000    0.05021    0.03475 =
         0.05694   -0.00953   -0.01004   -0.00341
C4    1    0.728959    1.090032    0.543534    11.00000    0.02346    0.03651 =
         0.04145   -0.01734   -0.00127   -0.00201
F7    3    0.766305    1.112737    0.488376    11.00000    0.03648    0.05254 =
         0.03398   -0.01593   -0.00701   -0.00534
F8    3    0.613860    1.124639    0.546131    11.00000    0.02038    0.05356 =
         0.08091   -0.02337    0.00113   -0.00230
F9    3    0.721350    1.024112    0.553966    11.00000    0.05056    0.03703 =
         0.06414   -0.01490   -0.01706   -0.01299
RESI 0
RESI CCF3 3
O1    2    0.963291    0.905304    0.598391    11.00000    0.03972    0.02836 =
         0.02497   -0.00487    0.00294   -0.01538
C1    1    0.953408    0.848124    0.642999    11.00000    0.03479    0.02592 =
         0.02409   -0.00445    0.00778   -0.00974
C2    1    0.916661    0.866879    0.700803    11.00000    0.05409    0.04367 =
         0.03384   -0.01690    0.01561   -0.02148
F1    3    0.793458    0.894624    0.696985    11.00000    0.05406    0.07548 =
         0.06574   -0.03616    0.03025   -0.01614
F2    3    0.937752    0.813487    0.749203    11.00000    0.10393    0.04980 =
         0.02772   -0.00962    0.01599   -0.03600
F3    3    0.981891    0.913934    0.707992    11.00000    0.07288    0.04566 =
         0.03711   -0.01751    0.00504   -0.02798
C3    1    1.081123    0.797247    0.655177    11.00000    0.04222    0.03989 =
         0.03737   -0.00754    0.00479   -0.00732
F4    3    1.134859    0.794045    0.606038    11.00000    0.04690    0.05635 =
         0.05456   -0.01858    0.01729   -0.00072
F5    3    1.164415    0.818853    0.686183    11.00000    0.04716    0.05967 =
         0.05297   -0.00291   -0.01158   -0.01328
F6    3    1.067739    0.733845    0.686871    11.00000    0.06484    0.03296 =
         0.06401    0.00184    0.00073   -0.00224
C4    1    0.848824    0.813678    0.623695    11.00000    0.05009    0.04119 =
         0.03472   -0.01212    0.00636   -0.02159
F7    3    0.892721    0.786267    0.581050    11.00000    0.08173    0.05599 =
         0.04296   -0.02642    0.01769   -0.04101
F8    3    0.815914    0.763946    0.668635    11.00000    0.06150    0.04655 =
         0.04360   -0.00879    0.01277   -0.03361
F9    3    0.745366    0.858517    0.602292    11.00000    0.04145    0.06067 =
         0.05580   -0.00901   -0.00438   -0.02387
RESI 0
RESI CCF3 4
O1    2    0.363899    0.514307    0.598669    11.00000    0.01621    0.03250 =
         0.02007   -0.00788    0.00139   -0.00766
C1    1    0.234444    0.528619    0.594333    11.00000    0.01502    0.03730 =
         0.01769   -0.00865    0.00127   -0.00946
C2    1    0.184061    0.500145    0.657013    11.00000    0.02323    0.04839 =
         0.02238   -0.00925    0.00385   -0.01015
F1    3    0.192958    0.431688    0.672179    11.00000    0.03597    0.04732 =
         0.03290    0.00063    0.00752   -0.01667
F2    3    0.062226    0.526626    0.659577    11.00000    0.02292    0.07075 =
         0.03295   -0.01383    0.01070   -0.00571
F3    3    0.250495    0.514732    0.697952    11.00000    0.03568    0.06771 =
         0.01808   -0.01624    0.00232   -0.01100
C3    1    0.188495    0.607118    0.571189    11.00000    0.02205    0.03704 =
         0.02544   -0.00908   -0.00120   -0.00374
F4    3    0.256577    0.635148    0.526124    11.00000    0.03252    0.03699 =
         0.03235    0.00023    0.00039   -0.00781
F5    3    0.200683    0.636785    0.613510    11.00000    0.03722    0.04195 =
         0.04306   -0.02193   -0.00434   -0.00067
F6    3    0.066019    0.622668    0.551960    11.00000    0.02041    0.05135 =
         0.04603   -0.00942   -0.00849    0.00288
C4    1    0.184518    0.492589    0.551834    11.00000    0.02037    0.04528 =
         0.02654   -0.01377    0.00509   -0.01424
F7    3    0.201325    0.526420    0.495711    11.00000    0.03576    0.06051 =
         0.02462   -0.01607    0.00175   -0.01705
F8    3    0.061659    0.488422    0.557523    11.00000    0.02054    0.06711 =
         0.04265   -0.02199    0.00130   -0.02116
F9    3    0.248189    0.429033    0.562541    11.00000    0.04042    0.04136 =
         0.04691   -0.02258   -0.00127   -0.01227
RESI 0
RESI CCF3 5
O1    2    0.549772    0.601388    0.543289    11.00000    0.02131    0.02537 =
         0.02033   -0.00747   -0.00254   -0.00863
C1    1    0.601421    0.648609    0.561575    11.00000    0.02205    0.02527 =
         0.02510   -0.01002   -0.00234   -0.00924
C2    1    0.739119    0.618665    0.588591    11.00000    0.02554    0.03001 =
         0.04366   -0.01263   -0.00910   -0.01098
F1    3    0.735654    0.578185    0.643873    11.00000    0.05178    0.03841 =
         0.04114   -0.00623   -0.02365   -0.01130
F2    3    0.803978    0.668115    0.590575    11.00000    0.02727    0.03729 =
         0.06390   -0.02194   -0.00731   -0.01303
F3    3    0.801517    0.581835    0.556970    11.00000    0.02069    0.04275 =
         0.06017   -0.02681   -0.00603   -0.00211
C3    1    0.605600    0.711708    0.506581    11.00000    0.03141    0.02899 =
         0.03352   -0.00734   -0.00116   -0.00875
F4    3    0.496353    0.728154    0.473927    11.00000    0.04196    0.02857 =
         0.04111   -0.00479   -0.01502   -0.00217
F5    3    0.697903    0.698119    0.471386    11.00000    0.04591    0.04220 =
         0.03838   -0.00805    0.01701   -0.01532
F6    3    0.623368    0.767119    0.521748    11.00000    0.04712    0.02674 =
         0.05250   -0.00992   -0.00407   -0.01208
C4    1    0.518746    0.672088    0.608541    11.00000    0.03568    0.04165 =
         0.03985   -0.02213    0.00284   -0.01592
F7    3    0.411863    0.714542    0.583625    11.00000    0.02790    0.05246 =
         0.06767   -0.03298    0.00773   -0.00493
F8    3    0.579571    0.704086    0.639128    11.00000    0.05083    0.05672 =
         0.04606   -0.03561    0.00759   -0.02142
F9    3    0.484451    0.617414    0.648181    11.00000    0.05231    0.05552 =
         0.03767   -0.02209    0.01792   -0.02663
RESI 0
RESI CCF3 6
O1    2    0.625998    0.464008    0.612432    11.00000    0.02131    0.02485 =
         0.01732   -0.00433   -0.00101   -0.00496
C1    1    0.659268    0.405367    0.658116    11.00000    0.02343    0.02411 =
         0.01898   -0.00568    0.00006   -0.00496
C2    1    0.798690    0.403035    0.679462    11.00000    0.02324    0.02982 =
         0.02554   -0.00586   -0.00355   -0.00110
F1    3    0.804030    0.443406    0.713619    11.00000    0.03560    0.04360 =
         0.03745   -0.01750   -0.01339   -0.00557
F2    3    0.853055    0.339069    0.711111    11.00000    0.03404    0.03606 =
         0.03971   -0.00345   -0.00916    0.00557
F3    3    0.870575    0.423006    0.633827    11.00000    0.02129    0.04624 =
         0.03761   -0.00615    0.00147   -0.00467
C3    1    0.652796    0.342171    0.636210    11.00000    0.03908    0.03071 =
         0.02637   -0.00985    0.00349   -0.01192
F4    3    0.545651    0.352357    0.603338    11.00000    0.05226    0.04963 =
         0.04130   -0.02129   -0.00671   -0.02249
F5    3    0.749229    0.332844    0.601434    11.00000    0.05735    0.03750 =
         0.03491   -0.01850    0.01477   -0.01059
F6    3    0.657144    0.284304    0.679643    11.00000    0.05730    0.02611 =
         0.04235   -0.00682    0.00830   -0.01314
C4    1    0.571317    0.404264    0.711169    11.00000    0.02943    0.03195 =
         0.02099   -0.00372   -0.00091   -0.00400
F7    3    0.461744    0.384930    0.701302    11.00000    0.02958    0.04253 =
         0.03321   -0.00222    0.00459   -0.01160
F8    3    0.624689    0.360334    0.761973    11.00000    0.04356    0.04287 =
         0.01743   -0.00023   -0.00042    0.00035
F9    3    0.544130    0.466074    0.718478    11.00000    0.03665    0.03825 =
         0.02752   -0.01298    0.00428    0.00004
RESI 0
RESI CCF3 7
O1    2    0.337144    1.040958    0.898881    11.00000    0.01043    0.03589 =
         0.02428   -0.00270   -0.00012   -0.00552
C1    1    0.211794    1.035535    0.902587    11.00000    0.01021    0.03154 =
         0.02222   -0.00677   -0.00207   -0.00643
C2    1    0.162380    1.030763    0.842414    11.00000    0.01915    0.03745 =
         0.02790   -0.01179   -0.00252   -0.00650
F1    3    0.205170    0.969676    0.835363    11.00000    0.04028    0.04134 =
         0.04229   -0.02326   -0.00154   -0.00431
F2    3    0.035960    1.042342    0.836479    11.00000    0.01801    0.05550 =
         0.03320   -0.01661   -0.00654   -0.00850
F3    3    0.203769    1.077466    0.797167    11.00000    0.02579    0.04787 =
         0.01923   -0.00951   -0.00055   -0.00753
C3    1    0.137753    1.100421    0.915789    11.00000    0.02170    0.03280 =
         0.02022   -0.00877    0.00111   -0.00497
F4    3    0.199946    1.116792    0.956990    11.00000    0.03769    0.04422 =
         0.02492   -0.01640   -0.00309   -0.01148
F5    3    0.125691    1.155000    0.866543    11.00000    0.03509    0.03058 =
         0.02648   -0.00530   -0.00215   -0.00140
F6    3    0.021908    1.092582    0.933921    11.00000    0.02023    0.04925 =
         0.03732   -0.01427    0.00868   -0.00366
C4    1    0.192696    0.970274    0.952876    11.00000    0.01931    0.03286 =
         0.02806   -0.00457    0.00181   -0.00658
F7    3    0.202371    0.980776    1.005742    11.00000    0.03203    0.04596 =
         0.02302   -0.00028   -0.00018   -0.01225
F8    3    0.079601    0.952418    0.947676    11.00000    0.02738    0.04787 =
         0.04309   -0.00518    0.00196   -0.02262
F9    3    0.282196    0.917901    0.951940    11.00000    0.03794    0.03256 =
         0.04421    0.00103    0.00647   -0.00003
RESI 0
RESI CCF3 8
O1    2    0.576873    1.081768    0.894803    11.00000    0.01845    0.02430 =
         0.01937   -0.00287   -0.00207   -0.00727
C1    1    0.576558    1.149015    0.866252    11.00000    0.01559    0.02295 =
         0.01752   -0.00403   -0.00236   -0.00604
C2    1    0.489613    1.196003    0.896368    11.00000    0.02148    0.03157 =
         0.02544   -0.00902    0.00328   -0.00610
F1    3    0.366361    1.200013    0.880555    11.00000    0.01586    0.03696 =
         0.04169   -0.01194    0.00203   -0.00373
F2    3    0.514336    1.259745    0.881221    11.00000    0.03015    0.02935 =
         0.05042   -0.01934    0.00296   -0.00703
F3    3    0.501096    1.170688    0.954847    11.00000    0.03774    0.05521 =
         0.02274   -0.01518    0.00512    0.00010
C3    1    0.715689    1.162691    0.868620    11.00000    0.01956    0.02817 =
         0.02550   -0.00479   -0.00109   -0.00972
F4    3    0.796752    1.112526    0.858102    11.00000    0.01727    0.03634 =
         0.03818   -0.01009    0.00406   -0.00519
F5    3    0.745949    1.165910    0.922859    11.00000    0.02474    0.03474 =
         0.02968   -0.00756   -0.00854   -0.01311
F6    3    0.731314    1.221651    0.829450    11.00000    0.02328    0.03466 =
         0.03191    0.00033    0.00024   -0.01416
C4    1    0.530504    1.166565    0.799921    11.00000    0.02252    0.03031 =
         0.01898   -0.00459   -0.00116   -0.01043
F7    3    0.620003    1.141429    0.768757    11.00000    0.03632    0.04722 =
         0.02019   -0.01173    0.00548   -0.00814
F8    3    0.498557    1.233812    0.773902    11.00000    0.03059    0.03061 =
         0.02272    0.00074   -0.00419   -0.00905
F9    3    0.428220    1.138253    0.795647    11.00000    0.02723    0.03820 =
         0.02253   -0.00403   -0.00729   -0.01546
RESI 0
RESI CCF3 9
O1    2    0.569863    0.939439    0.916714    11.00000    0.02024    0.02191 =
         0.02330   -0.00827    0.00090   -0.00007
C1    1    0.627188    0.907806    0.878396    11.00000    0.02184    0.03140 =
         0.01804   -0.01254   -0.00226    0.00082
C2    1    0.763268    0.925900    0.866868    11.00000    0.02389    0.06334 =
         0.03549   -0.02524    0.00434   -0.00755
F1    3    0.758166    0.988202    0.828715    11.00000    0.04789    0.06388 =
         0.04761   -0.02646    0.02125   -0.02629
F2    3    0.836762    0.881067    0.844170    11.00000    0.02774    0.08896 =
         0.05245   -0.03681    0.00474    0.00608
F3    3    0.820456    0.924475    0.916956    11.00000    0.02471    0.11513 =
         0.04379   -0.04278   -0.00231   -0.01464
C3    1    0.634696    0.829697    0.906178    11.00000    0.05490    0.03420 =
         0.02601   -0.01289    0.00022    0.00014
F4    3    0.524330    0.814698    0.927771    11.00000    0.07507    0.03570 =
         0.03835   -0.01282    0.01171   -0.02034
F5    3    0.722782    0.806168    0.950512    11.00000    0.07188    0.04655 =
         0.03620   -0.00762   -0.01506    0.02446
F6    3    0.664195    0.795535    0.865767    11.00000    0.09299    0.03608 =
         0.04047   -0.02150    0.00770    0.00450
C4    1    0.549905    0.931664    0.817502    11.00000    0.03100    0.03981 =
         0.02402   -0.01467   -0.00502   -0.00282
F7    3    0.448959    0.899680    0.822016    11.00000    0.03195    0.06562 =
         0.04559   -0.02655   -0.00683   -0.01302
F8    3    0.616392    0.918106    0.773760    11.00000    0.04230    0.05062 =
         0.02258   -0.01797    0.00023   -0.00321
F9    3    0.507258    0.998506    0.802740    11.00000    0.04378    0.03559 =
         0.02800   -0.00844   -0.01019    0.00606
RESI 0
RESI CCF3 10
O1    2    0.880754    0.516978    0.888288    11.00000    0.02103    0.02656 =
         0.01859   -0.00625   -0.00378   -0.00200
C1    1    0.852412    0.570507    0.838370    11.00000    0.02688    0.03001 =
         0.01964   -0.00639   -0.00339   -0.00452
C2    1    0.947821    0.564268    0.789495    11.00000    0.03177    0.04950 =
         0.02088   -0.00718   -0.00160   -0.00557
F1    3    1.056258    0.583779    0.800291    11.00000    0.03291    0.07566 =
         0.03534    0.00083    0.00181   -0.01996
F2    3    0.902032    0.604074    0.735835    11.00000    0.04622    0.06678 =
         0.01844   -0.00432   -0.00063    0.00081
F3    3    0.975533    0.500334    0.788052    11.00000    0.04036    0.05672 =
         0.03039   -0.01860    0.00232    0.00656
C3    1    0.716171    0.569361    0.814972    11.00000    0.02738    0.04170 =
         0.02754   -0.01028   -0.00764    0.00436
F4    3    0.638187    0.554852    0.859550    11.00000    0.02283    0.06234 =
         0.03794   -0.01178   -0.00161    0.00296
F5    3    0.717634    0.522310    0.787053    11.00000    0.03814    0.06102 =
         0.03954   -0.02449   -0.01299   -0.00651
F6    3    0.664461    0.629934    0.776763    11.00000    0.04616    0.05171 =
         0.03674   -0.00304   -0.01419    0.01374
C4    1    0.851958    0.639110    0.852753    11.00000    0.07104    0.03134 =
         0.02394   -0.00530   -0.00285   -0.01465
F7    3    0.747987    0.653951    0.881690    11.00000    0.09383    0.03150 =
         0.03647   -0.01281    0.00861    0.00229
F8    3    0.855405    0.691581    0.804902    11.00000    0.10331    0.03310 =
         0.03756   -0.00066    0.00089   -0.02113
F9    3    0.953061    0.632974    0.888282    11.00000    0.09635    0.05044 =
         0.04344   -0.01263   -0.01682   -0.03975
RESI 0
RESI CCF3 11
O1    2    0.944350    0.387829    0.974014    11.00000    0.01979    0.02323 =
         0.02684   -0.01030   -0.00124   -0.00819
C1    1    0.894108    0.335382    0.963577    11.00000    0.01865    0.02366 =
         0.03706   -0.01475   -0.00093   -0.00802
C2    1    0.973278    0.305305    0.919216    11.00000    0.03031    0.03895 =
         0.05100   -0.02545    0.00439   -0.01363
F1    3    1.080716    0.264065    0.946611    11.00000    0.02348    0.04138 =
         0.07575   -0.03242    0.00514   -0.00295
F2    3    0.909247    0.270059    0.893424    11.00000    0.03654    0.05549 =
         0.06411   -0.04545    0.01017   -0.02126
F3    3    1.007152    0.356793    0.874840    11.00000    0.04133    0.05066 =
         0.03807   -0.02332    0.00929   -0.02206
C3    1    0.754315    0.360349    0.938833    11.00000    0.02596    0.03587 =
         0.05954   -0.02341   -0.00343   -0.00802
F4    3    0.692671    0.402332    0.966297    11.00000    0.01908    0.04319 =
         0.07168   -0.03419   -0.00384   -0.00027
F5    3    0.752600    0.394404    0.880386    11.00000    0.04261    0.05006 =
         0.05457   -0.01500   -0.02338   -0.00917
F6    3    0.691489    0.307939    0.945424    11.00000    0.02088    0.04827 =
         0.08629   -0.03869    0.00255   -0.01412
C4    1    0.897618    0.278195    1.023728    11.00000    0.03770    0.03525 =
         0.04728   -0.01071    0.00499   -0.01409
F7    3    0.806122    0.298314    1.057984    11.00000    0.06027    0.04775 =
         0.05902   -0.01720    0.02858   -0.02122
F8    3    0.879112    0.218938    1.016175    11.00000    0.05786    0.02637 =
         0.07400   -0.01104   -0.00423   -0.01796
F9    3    1.008420    0.266810    1.052911    11.00000    0.04454    0.03061 =
         0.04511   -0.00532   -0.00939   -0.00553
RESI 0
RESI CCF3 12
O1    2    1.140263    0.461913    0.910960    11.00000    0.01387    0.03245 =
         0.02257   -0.01162    0.00054   -0.00295
C1    1    1.269476    0.443288    0.918157    11.00000    0.01271    0.03153 =
         0.02504   -0.01333    0.00114   -0.00545
C2    1    1.326717    0.453745    0.856213    11.00000    0.02270    0.04566 =
         0.02805   -0.01332    0.00554   -0.00963
F1    3    1.327744    0.520072    0.829768    11.00000    0.04058    0.05304 =
         0.03677   -0.00139    0.01079   -0.01557
F2    3    1.445874    0.420849    0.859987    11.00000    0.02233    0.06545 =
         0.04153   -0.02123    0.01393   -0.00573
F3    3    1.257887    0.431671    0.821371    11.00000    0.03683    0.07351 =
         0.02803   -0.02714    0.00462   -0.01397
C3    1    1.305069    0.366253    0.954640    11.00000    0.01781    0.03165 =
         0.03196   -0.01231   -0.00069   -0.00278
F4    3    1.231117    0.351545    1.000240    11.00000    0.02726    0.03711 =
         0.03036   -0.00513    0.00286   -0.00571
F5    3    1.288884    0.326016    0.921034    11.00000    0.02881    0.03604 =
         0.04563   -0.02363    0.00381   -0.00534
F6    3    1.425559    0.350115    0.975806    11.00000    0.01880    0.04419 =
         0.04850   -0.01200   -0.00570    0.00012
C4    1    1.320876    0.489279    0.951366    11.00000    0.01716    0.03512 =
         0.03295   -0.01806    0.00133   -0.00680
F7    3    1.297704    0.469236    1.008730    11.00000    0.03392    0.04986 =
         0.03179   -0.02403   -0.00186   -0.00810
F8    3    1.446678    0.487083    0.946575    11.00000    0.01782    0.05313 =
         0.05696   -0.02828    0.00016   -0.01280
F9    3    1.265308    0.554331    0.928977    11.00000    0.03281    0.03402 =
         0.05477   -0.02086   -0.00283   -0.00806
RESI 0
RESI CCF3 13
PART 2  -21
O1    2    1.169574    0.980643    0.596907   -21.00000    0.01716    0.05675 =
         0.02690   -0.02126   -0.00121   -0.00852
C1    1    1.267399    1.006338    0.615073   -21.00000    0.02020    0.06789 =
         0.03269   -0.02182   -0.00409   -0.01392
C2    1    1.228373    1.033862    0.668177   -21.00000    0.02890    0.06170 =
         0.02731   -0.01593   -0.00078   -0.01638
F1    3    1.151928    1.094619    0.650353   -21.00000    0.03225    0.06946 =
         0.03256   -0.02654   -0.00706   -0.01274
F2    3    1.327854    1.043631    0.696782   -21.00000    0.04125    0.07832 =
         0.03757   -0.02524   -0.00619   -0.02559
F3    3    1.165321    0.991619    0.707187   -21.00000    0.03989    0.07091 =
         0.02915   -0.02248   -0.00059   -0.02210
C3    1    1.385453    0.948990    0.632879   -21.00000    0.02435    0.07405 =
         0.05523   -0.02524   -0.01011   -0.00786
F4    3    1.402032    0.913799    0.593395   -21.00000    0.01566    0.07051 =
         0.05566   -0.02305   -0.00965   -0.00311
F5    3    1.370911    0.906174    0.685859   -21.00000    0.04565    0.08423 =
         0.06162   -0.01872   -0.00305   -0.00774
F6    3    1.490307    0.975705    0.636043   -21.00000    0.02383    0.08481 =
         0.06006   -0.02456   -0.01769   -0.01018
C4    1    1.299268    1.065685    0.562266   -21.00000    0.02531    0.06925 =
         0.03548   -0.01949    0.00097   -0.01418
F7    3    1.370762    1.042977    0.523556   -21.00000    0.04280    0.07591 =
         0.04142   -0.02242    0.01171   -0.01443
F8    3    1.359622    1.108738    0.579519   -21.00000    0.02259    0.06761 =
         0.02997   -0.01751    0.00559   -0.01411
F9    3    1.188443    1.100931    0.536187   -21.00000    0.02921    0.08080 =
         0.04177   -0.02225   -0.00131   -0.00896
PART 0
RESI 0
HKLF 4




REM  p-1-firsttry_a.res in P-1
REM wR2 = 0.1769, GooF = S = 1.080, Restrained GooF = 0.820 for all data
REM R1 = 0.0650 for 14827 Fo > 4sig(Fo) and 0.0898 for all 19930 data
REM 1838 parameters refined using 25188 restraints

END  
     
WGHT      0.0733     16.6680 

REM Highest difference peak  1.000,  deepest hole -1.307,  1-sigma level  0.114
Q1    1  -0.1810  0.7352  0.3512  11.00000  0.05    1.00
Q2    1   1.4013  0.7529  0.8190  11.00000  0.05    0.91
Q3    1  -0.1328  0.7019  0.3240  11.00000  0.05    0.88
Q4    1   1.3856  0.6922  0.8079  11.00000  0.05    0.84
Q5    1   1.3334  0.7235  0.8399  11.00000  0.05    0.83
Q6    1  -0.1154  0.7719  0.2708  11.00000  0.05    0.81
Q7    1  -0.1539  0.7990  0.2941  11.00000  0.05    0.80
Q8    1   0.5187  0.9708  0.9297  11.00000  0.05    0.76
Q9    1   1.3227  0.7649  0.8308  11.00000  0.05    0.75
Q10   1  -0.1347  0.7919  0.2791  11.00000  0.05    0.73
Q11   1   1.3672  0.7911  0.7820  11.00000  0.05    0.71
Q12   1   0.9783  1.0236  0.5787  11.00000  0.05    0.71
Q13   1   1.4096  0.7514  0.7571  11.00000  0.05    0.67
Q14   1   1.0231  0.9334  0.5910  11.00000  0.05    0.65
Q15   1   1.0732  0.8514  0.7088  11.00000  0.05    0.65
Q16   1   0.8164  0.3760  0.8596  11.00000  0.05    0.60
Q17   1   0.6192  0.4024  0.6861  11.00000  0.05    0.60
Q18   1   0.7045  0.8721  0.6375  11.00000  0.05    0.59
Q19   1   0.8205  0.6654  0.8831  11.00000  0.05    0.58
Q20   1   0.7572  0.9877  0.6743  11.00000  0.05    0.58
