TITL p-1-firsttry_a.res in P-1
    p-1_a.res
    created by SHELXL-2018/3 at 16:17:47 on 03-Jan-2021
REM Old TITL p-1-firsttry in P-1
REM SHELXT solution in P-1
REM R1 0.168,  Rweak 0.021,  Alpha 0.075,  Orientation as input
REM Formula found by SHELXT:  C57 O16 F113 Al4 Ni2
CELL  0.71073  10.6594  20.6268  23.5458   73.125   89.828   80.746
ZERR   4.000   0.0030   0.0058   0.0051    0.006    0.013    0.010
LATT  1
SFAC  C  O  F  AL  NI
UNIT 112 40 220 8 4
EADP F8_1 F6_13
EADP F2_1 F2_13
EADP C2_13 C2_1
EADP O1_13 O1_1
REM Restraints for Fragment oc(cf3)3, Nonafluoro-tert-butoxy, [(CF3)3CO]-
REM from: TURBOMOLE V6.0 B-P86/def-SV(P). Please cite
REM https://doi.org/10.1107/S1600576718004508
SADI_CCF3 0.02 C1 C2 C1 C3 C1 C4
SADI_CCF3 0.02 F1 C2 F2 C2 F3 C2 F4 C3 F5 C3 F6 C3 F7 C4 F8 C4 F9 C4
SADI_CCF3 0.04 C2 C3 C3 C4 C2 C4
SADI_CCF3 0.04 O1 C2 O1 C3 O1 C4
SADI_CCF3 0.04 F1 F2 F2 F3 F3 F1 F4 F5 F5 F6 F6 F4 F7 F8 F8 F9 F9 F7
SADI_CCF3 0.02 O1 C1
SADI_CCF3 0.04 F1 C1 F2 C1 F3 C1 F4 C1 F5 C1 F6 C1 F7 C1 F8 C1 F9 C1
SIMU_CCF3 O1 > F9
RIGU_CCF3 O1 > F9
SAME_CCF3 O1 > F9
SIMU 0.04 0.08 1
TEMP -173.150
L.S. 1
more -1
BOND $H
LIST 4
OMIT -4 3 16
OMIT -4 3 17
OMIT -6 3 13
OMIT 0 5 20
ACTA
FMAP 2
PLAN 20

WGHT    0.072100   16.863096
FVAR       0.19088   0.88665
NI1   5   -0.150037    0.750163    0.309102    11.00000    0.02490    0.04004 =
         0.02635   -0.00993   -0.00216   -0.00470
O1    2   -0.032649    0.669127    0.431996    11.00000    0.03396    0.06368 =
         0.03118   -0.00066   -0.00265   -0.00818
C1    1   -0.076126    0.700247    0.387203    11.00000    0.02597    0.03968 =
         0.03492   -0.00998    0.00538   -0.00936
AL1   4    1.017251    0.981582    0.577850    11.00000    0.01425    0.02480 =
         0.01675   -0.00673    0.00040   -0.00625
F1    3    1.000000    1.000000    0.500000    10.50000    0.01868    0.03149 =
         0.01663   -0.00784   -0.00035   -0.00721
NI2   5    1.367330    0.739603    0.796372    11.00000    0.04802    0.04280 =
         0.05023   -0.01744    0.01876   -0.01477
O2    2    0.069662    0.821703    0.255447    11.00000    0.04047    0.05461 =
         0.03688   -0.00579    0.00367   -0.01528
C2    1   -0.009992    0.795673    0.275161    11.00000    0.03302    0.03874 =
         0.02925   -0.00729   -0.00439   -0.00104
F2    3    0.500000    0.500000    0.500000    10.50000    0.01973    0.02764 =
         0.01538   -0.00836   -0.00011   -0.00790
AL2   4    0.507549    0.521397    0.567759    11.00000    0.01605    0.02305 =
         0.01617   -0.00662   -0.00031   -0.00624
AL3   4    0.492496    1.016975    0.922167    11.00000    0.01275    0.01981 =
         0.01396   -0.00553   -0.00050   -0.00357
O3    2   -0.410139    0.806633    0.344356    11.00000    0.03397    0.10806 =
         0.03817   -0.02391   -0.00224    0.01015
C3    1   -0.316021    0.784858    0.330963    11.00000    0.03552    0.06501 =
         0.02303   -0.01233   -0.00741   -0.00461
F3    3    0.500000    1.000000    1.000000    10.50000    0.02004    0.02764 =
         0.01234   -0.00700    0.00223   -0.00750
C8    1    1.432214    0.680873    0.872941    11.00000    0.03312    0.06063 =
         0.05638   -0.03025    0.00657   -0.00608
O8    2    1.469929    0.645992    0.917540    11.00000    0.03930    0.08448 =
         0.06096   -0.03303   -0.00221   -0.00086
C7    1    1.324701    0.673198    0.758731    11.00000    0.05499    0.04953 =
         0.03623   -0.00529    0.01161   -0.00826
O7    2    1.300354    0.636817    0.736182    11.00000    0.07399    0.06358 =
         0.04312   -0.02189    0.00470   -0.01946
C6    1    1.237820    0.801381    0.819683    11.00000    0.06699    0.03430 =
         0.03988   -0.01559    0.01354   -0.00959
O6    2    1.159206    0.836428    0.832186    11.00000    0.07540    0.04605 =
         0.06340   -0.01636    0.00820    0.00112
C5    1    1.504705    0.780288    0.753217    11.00000    0.04762    0.03912 =
         0.03733   -0.01833    0.00260   -0.00839
O5    2    1.585168    0.800759    0.729417    11.00000    0.05885    0.05900 =
         0.06533   -0.02578    0.02482   -0.03098
F4    3    1.000000    0.500000    1.000000    10.50000    0.01902    0.02444 =
         0.01832   -0.00872   -0.00297   -0.00404
O4    2   -0.207948    0.689572    0.210369    11.00000    0.06374    0.05374 =
         0.04065   -0.02212   -0.01052   -0.00280
C4    1   -0.189845    0.713808    0.245288    11.00000    0.03587    0.03421 =
         0.03166   -0.00500   -0.00247    0.00316
AL4   4    0.993570    0.464341    0.939941    11.00000    0.01338    0.02288 =
         0.01762   -0.00829   -0.00108   -0.00481
RESI CCF3 1
PART 1 21
O1    2    1.175144    0.970660    0.596505    21.00000    0.01717    0.05665 =
         0.02704   -0.02168   -0.00110   -0.00831
C1    1    1.272937    0.996803    0.614791    21.00000    0.02199    0.05545 =
         0.02352   -0.01228   -0.00402   -0.01420
C2    1    1.261090    0.992373    0.681252    21.00000    0.02868    0.06039 =
         0.02734   -0.01603   -0.00034   -0.01600
F1    3    1.291675    0.926384    0.715339    21.00000    0.05587    0.06445 =
         0.02925    0.00204   -0.01006   -0.02275
F2    3    1.336765    1.028329    0.699337    21.00000    0.04179    0.07928 =
         0.03803   -0.02625   -0.00630   -0.02619
F3    3    1.142385    1.015464    0.692893    21.00000    0.03365    0.08519 =
         0.03207   -0.02670    0.00359   -0.01987
C3    1    1.272293    1.072517    0.578396    21.00000    0.04056    0.05806 =
         0.02994   -0.01136    0.00099   -0.02112
F4    3    1.239451    1.081585    0.522048    21.00000    0.07427    0.06910 =
         0.02906   -0.00007   -0.00667   -0.01912
F5    3    1.189476    1.115706    0.598394    21.00000    0.04277    0.05228 =
         0.05416   -0.01675   -0.00820   -0.01392
F6    3    1.387417    1.089957    0.580972    21.00000    0.04427    0.07322 =
         0.07035   -0.00344    0.00236   -0.03331
C4    1    1.398665    0.951039    0.606558    21.00000    0.01964    0.06863 =
         0.03707   -0.01857   -0.00577   -0.01182
F7    3    1.427894    0.966567    0.550325    21.00000    0.02732    0.10220 =
         0.04155   -0.02698    0.00696   -0.01788
F8    3    1.495472    0.958429    0.639498    21.00000    0.02349    0.08582 =
         0.06072   -0.02431   -0.01861   -0.01024
F9    3    1.387551    0.884749    0.624401    21.00000    0.03327    0.06658 =
         0.05179   -0.01829   -0.01059   -0.00487
PART 0
RESI 0
RESI CCF3 2
O1    2    0.932435    1.049238    0.595819    11.00000    0.03101    0.03626 =
         0.03227   -0.01844   -0.00652    0.00254
C1    1    0.827137    1.097932    0.588454    11.00000    0.02602    0.03093 =
         0.03421   -0.01209    0.00323   -0.00381
C2    1    0.766766    1.091261    0.649141    11.00000    0.04848    0.04214 =
         0.03895   -0.01402    0.01197   -0.01343
F1    3    0.699673    1.040488    0.662973    11.00000    0.07798    0.07602 =
         0.05086   -0.01166    0.02252   -0.04798
F2    3    0.688408    1.149082    0.649445    11.00000    0.06412    0.06404 =
         0.05645   -0.02894    0.02785    0.00206
F3    3    0.855556    1.078338    0.692527    11.00000    0.07557    0.05427 =
         0.02885   -0.01571    0.00943   -0.01795
C3    1    0.868344    1.169462    0.565283    11.00000    0.03403    0.03721 =
         0.03048   -0.01282    0.00253   -0.01030
F4    3    0.950290    1.170095    0.522748    11.00000    0.04207    0.07180 =
         0.02982   -0.01328    0.00752   -0.02669
F5    3    0.926762    1.184777    0.608377    11.00000    0.05402    0.04337 =
         0.04179   -0.01627   -0.00551   -0.01876
F6    3    0.770692    1.219326    0.543524    11.00000    0.05059    0.03419 =
         0.05739   -0.00932   -0.01052   -0.00292
C4    1    0.728935    1.090050    0.543534    11.00000    0.02320    0.03618 =
         0.04253   -0.01765   -0.00095   -0.00182
F7    3    0.766306    1.112739    0.488371    11.00000    0.03702    0.05315 =
         0.03336   -0.01591   -0.00703   -0.00545
F8    3    0.613873    1.124639    0.546143    11.00000    0.01954    0.05421 =
         0.08221   -0.02362    0.00107   -0.00221
F9    3    0.721331    1.024114    0.553964    11.00000    0.05107    0.03656 =
         0.06492   -0.01480   -0.01744   -0.01334
RESI 0
RESI CCF3 3
O1    2    0.963278    0.905298    0.598402    11.00000    0.03990    0.02836 =
         0.02496   -0.00471    0.00285   -0.01540
C1    1    0.953393    0.848137    0.643006    11.00000    0.03451    0.02594 =
         0.02414   -0.00444    0.00817   -0.00936
C2    1    0.916628    0.866880    0.700815    11.00000    0.05395    0.04350 =
         0.03395   -0.01657    0.01459   -0.02113
F1    3    0.793417    0.894623    0.696982    11.00000    0.05349    0.07627 =
         0.06735   -0.03720    0.03166   -0.01592
F2    3    0.937713    0.813486    0.749199    11.00000    0.10586    0.05016 =
         0.02691   -0.00915    0.01613   -0.03702
F3    3    0.981890    0.913931    0.707994    11.00000    0.07362    0.04574 =
         0.03729   -0.01786    0.00460   -0.02829
C3    1    1.081151    0.797262    0.655151    11.00000    0.04325    0.04001 =
         0.03663   -0.00741    0.00459   -0.00763
F4    3    1.134865    0.794057    0.606037    11.00000    0.04660    0.05685 =
         0.05532   -0.01933    0.01836   -0.00052
F5    3    1.164406    0.818851    0.686186    11.00000    0.04652    0.06090 =
         0.05331   -0.00238   -0.01251   -0.01371
F6    3    1.067734    0.733841    0.686881    11.00000    0.06578    0.03207 =
         0.06465    0.00241    0.00023   -0.00202
C4    1    0.848764    0.813708    0.623696    11.00000    0.05075    0.04009 =
         0.03522   -0.01214    0.00691   -0.02110
F7    3    0.892748    0.786259    0.581052    11.00000    0.08359    0.05637 =
         0.04275   -0.02706    0.01808   -0.04195
F8    3    0.815911    0.763946    0.668627    11.00000    0.06178    0.04647 =
         0.04398   -0.00879    0.01310   -0.03405
F9    3    0.745343    0.858524    0.602288    11.00000    0.04064    0.06167 =
         0.05607   -0.00853   -0.00518   -0.02381
RESI 0
RESI CCF3 4
O1    2    0.363900    0.514302    0.598667    11.00000    0.01614    0.03251 =
         0.02015   -0.00791    0.00140   -0.00752
C1    1    0.234433    0.528613    0.594329    11.00000    0.01529    0.03759 =
         0.01740   -0.00857    0.00131   -0.00987
C2    1    0.184082    0.500125    0.657014    11.00000    0.02297    0.04859 =
         0.02288   -0.00969    0.00386   -0.01010
F1    3    0.192955    0.431686    0.672176    11.00000    0.03618    0.04700 =
         0.03328    0.00124    0.00744   -0.01689
F2    3    0.062223    0.526633    0.659572    11.00000    0.02267    0.07122 =
         0.03322   -0.01412    0.01097   -0.00558
F3    3    0.250493    0.514738    0.697943    11.00000    0.03603    0.06838 =
         0.01769   -0.01651    0.00223   -0.01097
C3    1    0.188501    0.607111    0.571189    11.00000    0.02177    0.03784 =
         0.02504   -0.00932   -0.00128   -0.00341
F4    3    0.256570    0.635147    0.526122    11.00000    0.03273    0.03698 =
         0.03243    0.00066    0.00041   -0.00813
F5    3    0.200682    0.636785    0.613508    11.00000    0.03765    0.04176 =
         0.04336   -0.02237   -0.00431   -0.00064
F6    3    0.066023    0.622672    0.551957    11.00000    0.02010    0.05165 =
         0.04632   -0.00939   -0.00863    0.00320
C4    1    0.184514    0.492581    0.551834    11.00000    0.01990    0.04539 =
         0.02694   -0.01364    0.00542   -0.01421
F7    3    0.201308    0.526423    0.495708    11.00000    0.03597    0.06118 =
         0.02418   -0.01606    0.00170   -0.01707
F8    3    0.061627    0.488419    0.557527    11.00000    0.02035    0.06761 =
         0.04306   -0.02212    0.00107   -0.02142
F9    3    0.248187    0.429034    0.562538    11.00000    0.04082    0.04086 =
         0.04753   -0.02277   -0.00121   -0.01223
RESI 0
RESI CCF3 5
O1    2    0.549768    0.601384    0.543287    11.00000    0.02136    0.02549 =
         0.02036   -0.00746   -0.00257   -0.00864
C1    1    0.601409    0.648613    0.561582    11.00000    0.02215    0.02541 =
         0.02485   -0.00987   -0.00236   -0.00923
C2    1    0.739130    0.618658    0.588593    11.00000    0.02580    0.03022 =
         0.04392   -0.01280   -0.00873   -0.01171
F1    3    0.735639    0.578197    0.643872    11.00000    0.05277    0.03832 =
         0.04080   -0.00586   -0.02449   -0.01118
F2    3    0.803977    0.668113    0.590578    11.00000    0.02720    0.03749 =
         0.06433   -0.02217   -0.00731   -0.01326
F3    3    0.801522    0.581838    0.556968    11.00000    0.02038    0.04290 =
         0.06058   -0.02714   -0.00567   -0.00191
C3    1    0.605605    0.711690    0.506579    11.00000    0.03131    0.02905 =
         0.03398   -0.00770   -0.00124   -0.00875
F4    3    0.496346    0.728145    0.473922    11.00000    0.04220    0.02851 =
         0.04121   -0.00457   -0.01557   -0.00195
F5    3    0.697915    0.698116    0.471385    11.00000    0.04616    0.04284 =
         0.03824   -0.00819    0.01761   -0.01573
F6    3    0.623355    0.767115    0.521751    11.00000    0.04733    0.02640 =
         0.05320   -0.00989   -0.00427   -0.01220
C4    1    0.518740    0.672085    0.608526    11.00000    0.03637    0.04117 =
         0.03979   -0.02168    0.00197   -0.01620
F7    3    0.411871    0.714544    0.583621    11.00000    0.02721    0.05233 =
         0.06938   -0.03363    0.00800   -0.00438
F8    3    0.579573    0.704095    0.639128    11.00000    0.05160    0.05701 =
         0.04588   -0.03598    0.00753   -0.02159
F9    3    0.484450    0.617417    0.648167    11.00000    0.05265    0.05620 =
         0.03711   -0.02188    0.01829   -0.02719
RESI 0
RESI CCF3 6
O1    2    0.626000    0.464005    0.612438    11.00000    0.02129    0.02502 =
         0.01724   -0.00435   -0.00102   -0.00497
C1    1    0.659261    0.405363    0.658123    11.00000    0.02341    0.02401 =
         0.01936   -0.00581    0.00019   -0.00510
C2    1    0.798691    0.403032    0.679467    11.00000    0.02344    0.02966 =
         0.02537   -0.00582   -0.00334   -0.00041
F1    3    0.804036    0.443407    0.713618    11.00000    0.03598    0.04384 =
         0.03758   -0.01778   -0.01372   -0.00586
F2    3    0.853046    0.339074    0.711113    11.00000    0.03409    0.03594 =
         0.03983   -0.00322   -0.00936    0.00590
F3    3    0.870555    0.423010    0.633826    11.00000    0.02095    0.04662 =
         0.03789   -0.00611    0.00173   -0.00479
C3    1    0.652807    0.342166    0.636205    11.00000    0.03838    0.03091 =
         0.02656   -0.00937    0.00334   -0.01168
F4    3    0.545663    0.352358    0.603339    11.00000    0.05272    0.05034 =
         0.04131   -0.02150   -0.00711   -0.02322
F5    3    0.749210    0.332842    0.601431    11.00000    0.05792    0.03762 =
         0.03483   -0.01879    0.01514   -0.01029
F6    3    0.657137    0.284308    0.679642    11.00000    0.05749    0.02562 =
         0.04315   -0.00669    0.00837   -0.01318
C4    1    0.571319    0.404263    0.711178    11.00000    0.02975    0.03155 =
         0.02130   -0.00343   -0.00142   -0.00414
F7    3    0.461734    0.384939    0.701301    11.00000    0.02921    0.04274 =
         0.03367   -0.00202    0.00471   -0.01175
F8    3    0.624687    0.360327    0.761964    11.00000    0.04396    0.04307 =
         0.01718   -0.00014   -0.00052    0.00036
F9    3    0.544122    0.466081    0.718473    11.00000    0.03680    0.03839 =
         0.02761   -0.01336    0.00434    0.00022
RESI 0
RESI CCF3 7
O1    2    0.337145    1.040957    0.898879    11.00000    0.01026    0.03617 =
         0.02437   -0.00259   -0.00011   -0.00552
C1    1    0.211793    1.035534    0.902582    11.00000    0.01027    0.03158 =
         0.02232   -0.00645   -0.00239   -0.00632
C2    1    0.162395    1.030755    0.842414    11.00000    0.01914    0.03676 =
         0.02864   -0.01185   -0.00249   -0.00641
F1    3    0.205166    0.969683    0.835366    11.00000    0.04063    0.04132 =
         0.04258   -0.02371   -0.00138   -0.00432
F2    3    0.035966    1.042335    0.836474    11.00000    0.01791    0.05582 =
         0.03339   -0.01668   -0.00675   -0.00854
F3    3    0.203772    1.077466    0.797168    11.00000    0.02597    0.04839 =
         0.01884   -0.00940   -0.00047   -0.00754
C3    1    0.137775    1.100421    0.915787    11.00000    0.02207    0.03308 =
         0.02001   -0.00888    0.00125   -0.00536
F4    3    0.199950    1.116788    0.956991    11.00000    0.03808    0.04442 =
         0.02493   -0.01671   -0.00314   -0.01169
F5    3    0.125699    1.154992    0.866539    11.00000    0.03533    0.03030 =
         0.02660   -0.00504   -0.00237   -0.00124
F6    3    0.021915    1.092576    0.933917    11.00000    0.01999    0.04968 =
         0.03750   -0.01439    0.00888   -0.00348
C4    1    0.192721    0.970264    0.952874    11.00000    0.01905    0.03303 =
         0.02864   -0.00496    0.00206   -0.00652
F7    3    0.202362    0.980771    1.005735    11.00000    0.03230    0.04634 =
         0.02262   -0.00008   -0.00028   -0.01239
F8    3    0.079608    0.952424    0.947675    11.00000    0.02742    0.04817 =
         0.04336   -0.00523    0.00189   -0.02309
F9    3    0.282196    0.917904    0.951932    11.00000    0.03812    0.03223 =
         0.04466    0.00112    0.00651    0.00038
RESI 0
RESI CCF3 8
O1    2    0.576877    1.081766    0.894799    11.00000    0.01847    0.02433 =
         0.01940   -0.00286   -0.00207   -0.00728
C1    1    0.576549    1.149009    0.866264    11.00000    0.01566    0.02285 =
         0.01770   -0.00405   -0.00263   -0.00595
C2    1    0.489632    1.196000    0.896368    11.00000    0.02163    0.03147 =
         0.02517   -0.00820    0.00321   -0.00604
F1    3    0.366348    1.200014    0.880553    11.00000    0.01555    0.03712 =
         0.04209   -0.01195    0.00211   -0.00367
F2    3    0.514347    1.259739    0.881214    11.00000    0.03024    0.02905 =
         0.05125   -0.01975    0.00291   -0.00707
F3    3    0.501111    1.170686    0.954848    11.00000    0.03797    0.05607 =
         0.02233   -0.01544    0.00516    0.00017
C3    1    0.715697    1.162684    0.868628    11.00000    0.01993    0.02795 =
         0.02554   -0.00485   -0.00104   -0.00973
F4    3    0.796735    1.112532    0.858107    11.00000    0.01705    0.03650 =
         0.03837   -0.01020    0.00419   -0.00494
F5    3    0.745935    1.165913    0.922857    11.00000    0.02493    0.03489 =
         0.02980   -0.00767   -0.00879   -0.01322
F6    3    0.731313    1.221644    0.829447    11.00000    0.02341    0.03468 =
         0.03191    0.00049    0.00029   -0.01429
C4    1    0.530513    1.166559    0.799925    11.00000    0.02239    0.03035 =
         0.01920   -0.00455   -0.00108   -0.01046
F7    3    0.620021    1.141441    0.768751    11.00000    0.03654    0.04756 =
         0.02004   -0.01196    0.00580   -0.00812
F8    3    0.498553    1.233813    0.773906    11.00000    0.03070    0.03062 =
         0.02268    0.00101   -0.00428   -0.00905
F9    3    0.428231    1.138253    0.795650    11.00000    0.02727    0.03837 =
         0.02275   -0.00402   -0.00750   -0.01568
RESI 0
RESI CCF3 9
O1    2    0.569854    0.939435    0.916711    11.00000    0.02022    0.02192 =
         0.02352   -0.00830    0.00095   -0.00005
C1    1    0.627196    0.907809    0.878397    11.00000    0.02218    0.03160 =
         0.01761   -0.01237   -0.00223    0.00013
C2    1    0.763257    0.925906    0.866856    11.00000    0.02375    0.06459 =
         0.03489   -0.02555    0.00411   -0.00699
F1    3    0.758171    0.988204    0.828711    11.00000    0.04897    0.06342 =
         0.04833   -0.02653    0.02224   -0.02753
F2    3    0.836759    0.881071    0.844168    11.00000    0.02718    0.08991 =
         0.05252   -0.03688    0.00479    0.00689
F3    3    0.820461    0.924477    0.916946    11.00000    0.02443    0.11709 =
         0.04393   -0.04359   -0.00278   -0.01468
C3    1    0.634640    0.829710    0.906188    11.00000    0.05540    0.03498 =
         0.02598   -0.01384   -0.00022   -0.00005
F4    3    0.524292    0.814711    0.927771    11.00000    0.07579    0.03592 =
         0.03859   -0.01275    0.01217   -0.02168
F5    3    0.722785    0.806175    0.950507    11.00000    0.07246    0.04689 =
         0.03603   -0.00701   -0.01561    0.02601
F6    3    0.664198    0.795535    0.865769    11.00000    0.09385    0.03579 =
         0.04098   -0.02194    0.00788    0.00485
C4    1    0.549931    0.931679    0.817497    11.00000    0.03138    0.03981 =
         0.02420   -0.01495   -0.00483   -0.00309
F7    3    0.448956    0.899682    0.822017    11.00000    0.03152    0.06623 =
         0.04631   -0.02711   -0.00704   -0.01319
F8    3    0.616380    0.918105    0.773765    11.00000    0.04262    0.05100 =
         0.02231   -0.01803    0.00041   -0.00331
F9    3    0.507257    0.998499    0.802739    11.00000    0.04406    0.03525 =
         0.02822   -0.00807   -0.01040    0.00636
RESI 0
RESI CCF3 10
O1    2    0.880771    0.516977    0.888290    11.00000    0.02100    0.02654 =
         0.01865   -0.00627   -0.00379   -0.00194
C1    1    0.852410    0.570506    0.838369    11.00000    0.02691    0.03031 =
         0.01969   -0.00691   -0.00318   -0.00493
C2    1    0.947812    0.564250    0.789494    11.00000    0.03254    0.04952 =
         0.02056   -0.00681   -0.00199   -0.00643
F1    3    1.056252    0.583773    0.800293    11.00000    0.03228    0.07630 =
         0.03578    0.00137    0.00201   -0.02041
F2    3    0.902033    0.604089    0.735838    11.00000    0.04671    0.06710 =
         0.01805   -0.00421   -0.00069    0.00077
F3    3    0.975521    0.500319    0.788062    11.00000    0.04059    0.05681 =
         0.03069   -0.01921    0.00223    0.00728
C3    1    0.716157    0.569350    0.814976    11.00000    0.02736    0.04150 =
         0.02759   -0.01007   -0.00761    0.00563
F4    3    0.638187    0.554860    0.859545    11.00000    0.02238    0.06282 =
         0.03821   -0.01177   -0.00125    0.00298
F5    3    0.717631    0.522312    0.787058    11.00000    0.03878    0.06147 =
         0.03960   -0.02491   -0.01329   -0.00708
F6    3    0.664442    0.629930    0.776771    11.00000    0.04631    0.05189 =
         0.03673   -0.00272   -0.01452    0.01431
C4    1    0.851949    0.639092    0.852775    11.00000    0.06981    0.03121 =
         0.02460   -0.00404   -0.00339   -0.01483
F7    3    0.747999    0.653952    0.881695    11.00000    0.09562    0.03126 =
         0.03620   -0.01316    0.00933    0.00369
F8    3    0.855421    0.691578    0.804910    11.00000    0.10370    0.03253 =
         0.03806   -0.00020    0.00091   -0.02129
F9    3    0.953083    0.632982    0.888275    11.00000    0.09811    0.05176 =
         0.04336   -0.01280   -0.01746   -0.04189
RESI 0
RESI CCF3 11
O1    2    0.944347    0.387831    0.974021    11.00000    0.01989    0.02328 =
         0.02678   -0.01025   -0.00127   -0.00814
C1    1    0.894111    0.335380    0.963564    11.00000    0.01877    0.02386 =
         0.03666   -0.01458   -0.00142   -0.00782
C2    1    0.973274    0.305326    0.919223    11.00000    0.03070    0.03896 =
         0.05108   -0.02526    0.00372   -0.01416
F1    3    1.080740    0.264066    0.946608    11.00000    0.02302    0.04113 =
         0.07720   -0.03284    0.00525   -0.00247
F2    3    0.909243    0.270062    0.893418    11.00000    0.03688    0.05588 =
         0.06435   -0.04600    0.01022   -0.02161
F3    3    1.007149    0.356794    0.874837    11.00000    0.04171    0.05130 =
         0.03729   -0.02310    0.00947   -0.02240
C3    1    0.754323    0.360359    0.938812    11.00000    0.02614    0.03561 =
         0.06003   -0.02329   -0.00240   -0.00858
F4    3    0.692679    0.402342    0.966286    11.00000    0.01884    0.04339 =
         0.07223   -0.03455   -0.00356   -0.00009
F5    3    0.752612    0.394405    0.880369    11.00000    0.04346    0.05010 =
         0.05424   -0.01450   -0.02449   -0.00897
F6    3    0.691492    0.307934    0.945421    11.00000    0.02066    0.04874 =
         0.08736   -0.03942    0.00273   -0.01449
C4    1    0.897610    0.278207    1.023719    11.00000    0.03731    0.03549 =
         0.04832   -0.01114    0.00546   -0.01451
F7    3    0.806099    0.298319    1.057970    11.00000    0.06099    0.04844 =
         0.05895   -0.01776    0.02987   -0.02182
F8    3    0.879145    0.218940    1.016163    11.00000    0.05827    0.02581 =
         0.07517   -0.01089   -0.00448   -0.01812
F9    3    1.008423    0.266821    1.052902    11.00000    0.04480    0.03059 =
         0.04505   -0.00501   -0.01022   -0.00524
RESI 0
RESI CCF3 12
O1    2    1.140267    0.461917    0.910955    11.00000    0.01384    0.03255 =
         0.02270   -0.01169    0.00044   -0.00281
C1    1    1.269483    0.443281    0.918160    11.00000    0.01285    0.03176 =
         0.02494   -0.01346    0.00111   -0.00567
C2    1    1.326710    0.453754    0.856221    11.00000    0.02246    0.04556 =
         0.02901   -0.01341    0.00528   -0.00996
F1    3    1.327745    0.520069    0.829765    11.00000    0.04078    0.05297 =
         0.03670   -0.00045    0.01080   -0.01574
F2    3    1.445884    0.420839    0.859996    11.00000    0.02206    0.06584 =
         0.04194   -0.02164    0.01423   -0.00566
F3    3    1.257890    0.431669    0.821370    11.00000    0.03714    0.07425 =
         0.02773   -0.02762    0.00446   -0.01396
C3    1    1.305067    0.366259    0.954640    11.00000    0.01775    0.03191 =
         0.03205   -0.01249   -0.00089   -0.00268
F4    3    1.231124    0.351549    1.000241    11.00000    0.02750    0.03732 =
         0.03013   -0.00491    0.00297   -0.00587
F5    3    1.288896    0.326021    0.921036    11.00000    0.02906    0.03590 =
         0.04610   -0.02396    0.00387   -0.00531
F6    3    1.425569    0.350114    0.975800    11.00000    0.01857    0.04428 =
         0.04885   -0.01198   -0.00582    0.00033
C4    1    1.320867    0.489276    0.951368    11.00000    0.01682    0.03505 =
         0.03327   -0.01788    0.00176   -0.00685
F7    3    1.297701    0.469241    1.008736    11.00000    0.03428    0.05039 =
         0.03138   -0.02422   -0.00198   -0.00807
F8    3    1.446696    0.487081    0.946576    11.00000    0.01755    0.05349 =
         0.05746   -0.02847    0.00003   -0.01294
F9    3    1.265322    0.554335    0.928975    11.00000    0.03304    0.03362 =
         0.05527   -0.02088   -0.00285   -0.00805
RESI 0
RESI CCF3 13
PART 2  -21
O1    2    1.169070    0.980668    0.597196   -21.00000    0.01717    0.05665 =
         0.02704   -0.02168   -0.00110   -0.00831
C1    1    1.267248    1.006339    0.615127   -21.00000    0.01545    0.06126 =
         0.03367   -0.02171   -0.00009   -0.01137
C2    1    1.228559    1.033774    0.668288   -21.00000    0.02868    0.06039 =
         0.02734   -0.01603   -0.00034   -0.01600
F1    3    1.152105    1.094549    0.650532   -21.00000    0.03550    0.07065 =
         0.04081   -0.03605   -0.00760   -0.00577
F2    3    1.328077    1.043001    0.697259   -21.00000    0.04179    0.07928 =
         0.03803   -0.02625   -0.00630   -0.02619
F3    3    1.164928    0.991645    0.707159   -21.00000    0.05726    0.08873 =
         0.02559   -0.02322    0.00403   -0.03860
C3    1    1.385181    0.948884    0.632735   -21.00000    0.02289    0.06432 =
         0.05854   -0.01967   -0.01122   -0.00557
F4    3    1.400670    0.913522    0.593382   -21.00000    0.01357    0.06299 =
         0.06875   -0.02503   -0.01501    0.00928
F5    3    1.371324    0.906244    0.685833   -21.00000    0.05552    0.08234 =
         0.07051   -0.00422    0.00717    0.00214
F6    3    1.490643    0.975209    0.635459   -21.00000    0.02349    0.08582 =
         0.06072   -0.02431   -0.01861   -0.01024
C4    1    1.299241    1.065274    0.562034   -21.00000    0.01618    0.06850 =
         0.02941   -0.01710    0.00050   -0.01066
F7    3    1.370154    1.042275    0.523258   -21.00000    0.05972    0.07328 =
         0.04962   -0.02444    0.03082   -0.01571
F8    3    1.361705    1.107816    0.578801   -21.00000    0.03335    0.07361 =
         0.00961   -0.00740    0.00429   -0.02581
F9    3    1.188868    1.100872    0.535819   -21.00000    0.02360    0.08964 =
         0.05265   -0.01383   -0.01064   -0.00466
PART 0
RESI 0
HKLF 4




REM  p-1-firsttry_a.res in P-1
REM wR2 = 0.175870, GooF = S = 1.07707, Restrained GooF = 0.80587 for all data
REM R1 = 0.064770 for 14827 Fo > 4sig(Fo) and 0.089584 for all 19930 data
REM 1838 parameters refined using 25188 restraints

END  
     
WGHT      0.0723     16.7849 

REM Highest difference peak  0.998,  deepest hole -1.310,  1-sigma level  0.113
Q1    1  -0.1809  0.7353  0.3512  11.00000  0.05    1.00
Q2    1   1.4016  0.7530  0.8190  11.00000  0.05    0.91
Q3    1  -0.1327  0.7018  0.3240  11.00000  0.05    0.88
Q4    1   1.3857  0.6921  0.8079  11.00000  0.05    0.83
Q5    1   1.3333  0.7237  0.8400  11.00000  0.05    0.82
Q6    1  -0.1154  0.7721  0.2708  11.00000  0.05    0.81
Q7    1  -0.1538  0.7991  0.2942  11.00000  0.05    0.79
Q8    1   0.5188  0.9707  0.9296  11.00000  0.05    0.76
Q9    1   1.3230  0.7649  0.8308  11.00000  0.05    0.75
Q10   1   1.3673  0.7912  0.7820  11.00000  0.05    0.71
Q11   1   0.9783  1.0236  0.5787  11.00000  0.05    0.70
Q12   1   1.4097  0.7514  0.7570  11.00000  0.05    0.67
Q13   1   1.0727  0.8514  0.7089  11.00000  0.05    0.64
Q14   1   1.0231  0.9334  0.5910  11.00000  0.05    0.64
Q15   1   0.6192  0.4024  0.6858  11.00000  0.05    0.58
Q16   1   0.8172  0.3753  0.8594  11.00000  0.05    0.58
Q17   1   0.7044  0.8724  0.6378  11.00000  0.05    0.58
Q18   1   0.7572  0.9872  0.6742  11.00000  0.05    0.57
Q19   1   0.4875  1.0643  0.9073  11.00000  0.05    0.57
Q20   1   0.8645  0.5964  0.8475  11.00000  0.05    0.57
