
 +++++++++++++++++++++++++++++++++++++++++++++++++++++++++++++++++++
 +  SHELXL -  CRYSTAL STRUCTURE REFINEMENT  -   MULTI-CPU VERSION  +
 +  Copyright(C) George M. Sheldrick 1993-2018     Version 2018/3  +
 +  testdata/p-1_a             started at 22:03:39 on 07-Mar-2022  +
 +++++++++++++++++++++++++++++++++++++++++++++++++++++++++++++++++++

 Command line parameters: testdata/p-1_a -a50000 -b3000 -c624 -g0 -m0 -t6

 -a sets the approximate maximum number of atoms including hydrogens.
 -b sets the maximum number of full-matrix parameters (not used by CGLS).
 For example -b9000 allows refinement of 1000 anisotropic atoms or 3000
 with BLOC 1. For a 32-bit version, -b times the square root of the
 number of threads should not exceed about 65500. -c sets the reflection
 buffer size. This depends on the CPU cache size but will rarely
 need changing.

 -g sets the number of reflection groups used for calculating R_complete,
 This must be greater than 1 but not greater than the total number of
 reflections for refinement. -m sets the current reflection group number.
 This may not be less than 1 nor greater than the number set by -g. These
 command line flags override other ways of defining free-R reflections.
 The -m value is also used as a seed for the WIGL pseudo-random shifts.

 -t sets the number of threads, otherwise it is set to the apparent
 number of CPUs. For optimal performance on hyperthreading systems,
 -t should be set to a little more than half the number of CPUs;
 e.g. -t4 or -t5 for an Intel i7 processor.

 Running  6 threads on  6 processors

 TITL p-1-firsttry_a.res in P-1
     p-1_a.res
     created by SHELXL-2018/3 at 21:21:14 on 07-Mar-2022
 REM Old TITL p-1-firsttry in P-1
 REM SHELXT solution in P-1
 REM R1 0.168,  Rweak 0.021,  Alpha 0.075,  Orientation as input
 REM Formula found by SHELXT:  C57 O16 F113 Al4 Ni2
 CELL  0.71073  10.6594  20.6268  23.5458   73.125   89.828   80.746
 ZERR   4.000   0.0030   0.0058   0.0051    0.006    0.013    0.010
 LATT  1
 SFAC  C  O  F  AL  NI
 UNIT 112 40 220 8 4

 V =     4884.37     F(000) =    3188.0     Mu =   0.70 mm-1      Cell Wt =     6615.80    Rho =  2.249

 EADP F8_1 F6_13
 EADP F2_1 F2_13
 EADP C2_13 C2_1
 EADP O1_13 O1_1
 REM Restraints for Fragment oc(cf3)3, Nonafluoro-tert-butoxy, [(CF3)3CO]-
 REM from: TURBOMOLE V6.0 B-P86/def-SV(P). Please cite
 REM https://doi.org/10.1107/S1600576718004508
 SADI_CCF3 0.02 C1 C2 C1 C3 C1 C4
 SADI_CCF3 0.02 F1 C2 F2 C2 F3 C2 F4 C3 F5 C3 F6 C3 F7 C4 F8 C4 F9 C4
 SADI_CCF3 0.04 C2 C3 C3 C4 C2 C4
 SADI_CCF3 0.04 O1 C2 O1 C3 O1 C4
 SADI_CCF3 0.04 F1 F2 F2 F3 F3 F1 F4 F5 F5 F6 F6 F4 F7 F8 F8 F9 F9 F7
 SADI_CCF3 0.02 O1 C1
 SADI_CCF3 0.04 F1 C1 F2 C1 F3 C1 F4 C1 F5 C1 F6 C1 F7 C1 F8 C1 F9 C1
 SIMU_CCF3 O1 > F9
 RIGU_CCF3 O1 > F9
 SAME_CCF3 O1 > F9
 SIMU 0.04 0.08 1
 TEMP -173.150
 L.S. 3
 more -1
 BOND $H
 LIST 4
 OMIT -4 3 16
 OMIT -4 3 17
 OMIT -6 3 13
 OMIT 0 5 20
 ACTA
 FMAP 2
 PLAN 20
  
 WGHT    0.072100   16.863091
 FVAR       0.19088   0.88665
 NI1   5   -0.150037    0.750163    0.309102    11.00000    0.02490    0.04004 =
          0.02635   -0.00993   -0.00216   -0.00470
 O1    2   -0.032649    0.669127    0.431996    11.00000    0.03396    0.06368 =
          0.03118   -0.00066   -0.00265   -0.00818
 C1    1   -0.076126    0.700247    0.387203    11.00000    0.02597    0.03968 =
          0.03492   -0.00998    0.00538   -0.00936
 AL1   4    1.017251    0.981583    0.577850    11.00000    0.01425    0.02480 =
          0.01675   -0.00673    0.00040   -0.00625
 F1    3    1.000000    1.000000    0.500000    10.50000    0.01868    0.03149 =
          0.01663   -0.00784   -0.00035   -0.00721
 NI2   5    1.367330    0.739603    0.796372    11.00000    0.04802    0.04280 =
          0.05023   -0.01744    0.01876   -0.01477
 O2    2    0.069662    0.821703    0.255447    11.00000    0.04047    0.05461 =
          0.03688   -0.00579    0.00367   -0.01528
 C2    1   -0.009992    0.795673    0.275161    11.00000    0.03302    0.03874 =
          0.02925   -0.00729   -0.00439   -0.00104
 F2    3    0.500000    0.500000    0.500000    10.50000    0.01973    0.02764 =
          0.01538   -0.00836   -0.00011   -0.00790
 AL2   4    0.507549    0.521397    0.567759    11.00000    0.01605    0.02305 =
          0.01617   -0.00662   -0.00031   -0.00624
 AL3   4    0.492496    1.016975    0.922167    11.00000    0.01275    0.01981 =
          0.01396   -0.00553   -0.00050   -0.00357
 O3    2   -0.410139    0.806633    0.344356    11.00000    0.03397    0.10806 =
          0.03817   -0.02391   -0.00224    0.01015
 C3    1   -0.316021    0.784858    0.330963    11.00000    0.03552    0.06501 =
          0.02303   -0.01233   -0.00741   -0.00460
 F3    3    0.500000    1.000000    1.000000    10.50000    0.02004    0.02764 =
          0.01234   -0.00700    0.00223   -0.00750
 C8    1    1.432214    0.680873    0.872941    11.00000    0.03312    0.06063 =
          0.05638   -0.03025    0.00657   -0.00608
 O8    2    1.469929    0.645992    0.917540    11.00000    0.03930    0.08448 =
          0.06096   -0.03303   -0.00221   -0.00086
 C7    1    1.324701    0.673198    0.758731    11.00000    0.05499    0.04953 =
          0.03623   -0.00529    0.01161   -0.00826
 O7    2    1.300354    0.636817    0.736182    11.00000    0.07399    0.06358 =
          0.04312   -0.02189    0.00470   -0.01946
 C6    1    1.237820    0.801381    0.819683    11.00000    0.06699    0.03430 =
          0.03988   -0.01559    0.01355   -0.00959
 O6    2    1.159206    0.836428    0.832186    11.00000    0.07540    0.04606 =
          0.06340   -0.01636    0.00820    0.00112
 C5    1    1.504705    0.780288    0.753217    11.00000    0.04762    0.03912 =
          0.03733   -0.01833    0.00260   -0.00839
 O5    2    1.585168    0.800759    0.729417    11.00000    0.05885    0.05900 =
          0.06533   -0.02578    0.02482   -0.03098
 F4    3    1.000000    0.500000    1.000000    10.50000    0.01902    0.02444 =
          0.01832   -0.00872   -0.00297   -0.00404
 O4    2   -0.207948    0.689572    0.210369    11.00000    0.06374    0.05374 =
          0.04065   -0.02212   -0.01052   -0.00280
 C4    1   -0.189845    0.713808    0.245288    11.00000    0.03587    0.03421 =
          0.03166   -0.00500   -0.00247    0.00316
 AL4   4    0.993570    0.464341    0.939941    11.00000    0.01338    0.02288 =
          0.01762   -0.00829   -0.00108   -0.00481
 RESI CCF3 1
 PART 1 21
 O1    2    1.175143    0.970660    0.596505    21.00000    0.01717    0.05665 =
          0.02704   -0.02168   -0.00110   -0.00831
 C1    1    1.272937    0.996803    0.614791    21.00000    0.02199    0.05545 =
          0.02352   -0.01227   -0.00402   -0.01420
 C2    1    1.261090    0.992373    0.681252    21.00000    0.02868    0.06039 =
          0.02734   -0.01603   -0.00034   -0.01600
 F1    3    1.291675    0.926384    0.715339    21.00000    0.05587    0.06445 =
          0.02925    0.00204   -0.01006   -0.02275
 F2    3    1.336765    1.028329    0.699337    21.00000    0.04179    0.07928 =
          0.03803   -0.02625   -0.00630   -0.02619
 F3    3    1.142385    1.015464    0.692893    21.00000    0.03365    0.08519 =
          0.03207   -0.02670    0.00359   -0.01987
 C3    1    1.272293    1.072517    0.578396    21.00000    0.04056    0.05806 =
          0.02994   -0.01136    0.00099   -0.02112
 F4    3    1.239451    1.081585    0.522048    21.00000    0.07427    0.06910 =
          0.02906   -0.00007   -0.00667   -0.01912
 F5    3    1.189476    1.115706    0.598394    21.00000    0.04277    0.05228 =
          0.05416   -0.01675   -0.00820   -0.01392
 F6    3    1.387417    1.089957    0.580972    21.00000    0.04427    0.07322 =
          0.07035   -0.00344    0.00236   -0.03331
 C4    1    1.398665    0.951039    0.606558    21.00000    0.01964    0.06863 =
          0.03707   -0.01857   -0.00577   -0.01182
 F7    3    1.427894    0.966567    0.550325    21.00000    0.02732    0.10220 =
          0.04155   -0.02698    0.00696   -0.01788
 F8    3    1.495472    0.958429    0.639498    21.00000    0.02349    0.08582 =
          0.06072   -0.02431   -0.01861   -0.01024
 F9    3    1.387551    0.884749    0.624401    21.00000    0.03327    0.06658 =
          0.05179   -0.01829   -0.01059   -0.00487
 PART 0
 RESI 0
 RESI CCF3 2
 O1    2    0.932435    1.049238    0.595819    11.00000    0.03101    0.03626 =
          0.03227   -0.01844   -0.00652    0.00254
 C1    1    0.827137    1.097932    0.588454    11.00000    0.02602    0.03093 =
          0.03421   -0.01209    0.00323   -0.00381
 C2    1    0.766766    1.091261    0.649141    11.00000    0.04848    0.04214 =
          0.03895   -0.01402    0.01197   -0.01343
 F1    3    0.699673    1.040488    0.662973    11.00000    0.07798    0.07602 =
          0.05086   -0.01166    0.02252   -0.04798
 F2    3    0.688408    1.149082    0.649445    11.00000    0.06412    0.06404 =
          0.05645   -0.02894    0.02785    0.00206
 F3    3    0.855556    1.078338    0.692527    11.00000    0.07557    0.05427 =
          0.02885   -0.01571    0.00943   -0.01795
 C3    1    0.868344    1.169462    0.565283    11.00000    0.03403    0.03721 =
          0.03048   -0.01282    0.00253   -0.01030
 F4    3    0.950290    1.170095    0.522748    11.00000    0.04207    0.07180 =
          0.02982   -0.01328    0.00752   -0.02669
 F5    3    0.926762    1.184777    0.608377    11.00000    0.05402    0.04338 =
          0.04179   -0.01627   -0.00551   -0.01876
 F6    3    0.770692    1.219326    0.543524    11.00000    0.05059    0.03419 =
          0.05739   -0.00932   -0.01052   -0.00292
 C4    1    0.728935    1.090050    0.543534    11.00000    0.02320    0.03618 =
          0.04253   -0.01765   -0.00095   -0.00182
 F7    3    0.766306    1.112739    0.488371    11.00000    0.03702    0.05315 =
          0.03336   -0.01591   -0.00703   -0.00545
 F8    3    0.613873    1.124639    0.546143    11.00000    0.01954    0.05421 =
          0.08222   -0.02362    0.00107   -0.00221
 F9    3    0.721331    1.024114    0.553964    11.00000    0.05107    0.03656 =
          0.06492   -0.01480   -0.01744   -0.01334
 RESI 0
 RESI CCF3 3
 O1    2    0.963278    0.905298    0.598402    11.00000    0.03990    0.02836 =
          0.02496   -0.00471    0.00285   -0.01540
 C1    1    0.953393    0.848137    0.643006    11.00000    0.03451    0.02594 =
          0.02414   -0.00444    0.00817   -0.00936
 C2    1    0.916628    0.866880    0.700815    11.00000    0.05395    0.04350 =
          0.03395   -0.01657    0.01459   -0.02113
 F1    3    0.793417    0.894623    0.696982    11.00000    0.05349    0.07627 =
          0.06735   -0.03720    0.03166   -0.01592
 F2    3    0.937713    0.813486    0.749199    11.00000    0.10586    0.05016 =
          0.02691   -0.00915    0.01613   -0.03702
 F3    3    0.981890    0.913931    0.707994    11.00000    0.07362    0.04574 =
          0.03729   -0.01786    0.00460   -0.02829
 C3    1    1.081151    0.797263    0.655151    11.00000    0.04325    0.04001 =
          0.03663   -0.00741    0.00459   -0.00763
 F4    3    1.134865    0.794057    0.606037    11.00000    0.04660    0.05685 =
          0.05532   -0.01933    0.01836   -0.00052
 F5    3    1.164406    0.818851    0.686186    11.00000    0.04652    0.06090 =
          0.05331   -0.00238   -0.01251   -0.01371
 F6    3    1.067734    0.733841    0.686881    11.00000    0.06578    0.03207 =
          0.06465    0.00241    0.00023   -0.00202
 C4    1    0.848765    0.813708    0.623696    11.00000    0.05075    0.04009 =
          0.03522   -0.01214    0.00691   -0.02110
 F7    3    0.892748    0.786259    0.581052    11.00000    0.08359    0.05637 =
          0.04275   -0.02706    0.01808   -0.04195
 F8    3    0.815911    0.763946    0.668627    11.00000    0.06178    0.04647 =
          0.04398   -0.00879    0.01310   -0.03405
 F9    3    0.745343    0.858524    0.602289    11.00000    0.04064    0.06167 =
          0.05607   -0.00853   -0.00518   -0.02381
 RESI 0
 RESI CCF3 4
 O1    2    0.363900    0.514302    0.598667    11.00000    0.01614    0.03251 =
          0.02015   -0.00791    0.00140   -0.00752
 C1    1    0.234433    0.528613    0.594329    11.00000    0.01529    0.03759 =
          0.01740   -0.00857    0.00131   -0.00987
 C2    1    0.184082    0.500125    0.657014    11.00000    0.02297    0.04859 =
          0.02288   -0.00969    0.00386   -0.01010
 F1    3    0.192955    0.431686    0.672176    11.00000    0.03618    0.04700 =
          0.03328    0.00124    0.00744   -0.01689
 F2    3    0.062223    0.526633    0.659572    11.00000    0.02267    0.07122 =
          0.03322   -0.01412    0.01097   -0.00558
 F3    3    0.250493    0.514738    0.697943    11.00000    0.03603    0.06838 =
          0.01769   -0.01651    0.00223   -0.01097
 C3    1    0.188501    0.607111    0.571189    11.00000    0.02177    0.03784 =
          0.02504   -0.00932   -0.00128   -0.00341
 F4    3    0.256570    0.635147    0.526122    11.00000    0.03273    0.03698 =
          0.03243    0.00066    0.00041   -0.00813
 F5    3    0.200682    0.636785    0.613508    11.00000    0.03765    0.04176 =
          0.04336   -0.02237   -0.00431   -0.00064
 F6    3    0.066023    0.622672    0.551957    11.00000    0.02010    0.05165 =
          0.04632   -0.00939   -0.00863    0.00320
 C4    1    0.184514    0.492581    0.551834    11.00000    0.01990    0.04539 =
          0.02694   -0.01364    0.00542   -0.01421
 F7    3    0.201308    0.526423    0.495708    11.00000    0.03597    0.06119 =
          0.02418   -0.01606    0.00170   -0.01707
 F8    3    0.061627    0.488419    0.557527    11.00000    0.02035    0.06761 =
          0.04306   -0.02212    0.00107   -0.02142
 F9    3    0.248187    0.429034    0.562538    11.00000    0.04082    0.04086 =
          0.04753   -0.02277   -0.00121   -0.01223
 RESI 0
 RESI CCF3 5
 O1    2    0.549768    0.601384    0.543287    11.00000    0.02136    0.02549 =
          0.02036   -0.00746   -0.00257   -0.00864
 C1    1    0.601409    0.648613    0.561582    11.00000    0.02215    0.02541 =
          0.02485   -0.00987   -0.00236   -0.00923
 C2    1    0.739130    0.618658    0.588593    11.00000    0.02580    0.03022 =
          0.04392   -0.01280   -0.00873   -0.01171
 F1    3    0.735639    0.578197    0.643872    11.00000    0.05277    0.03832 =
          0.04080   -0.00586   -0.02449   -0.01119
 F2    3    0.803977    0.668113    0.590578    11.00000    0.02720    0.03749 =
          0.06433   -0.02217   -0.00731   -0.01326
 F3    3    0.801522    0.581838    0.556968    11.00000    0.02038    0.04290 =
          0.06058   -0.02714   -0.00567   -0.00191
 C3    1    0.605605    0.711690    0.506579    11.00000    0.03131    0.02905 =
          0.03398   -0.00770   -0.00124   -0.00875
 F4    3    0.496346    0.728145    0.473922    11.00000    0.04220    0.02851 =
          0.04121   -0.00457   -0.01557   -0.00195
 F5    3    0.697915    0.698116    0.471385    11.00000    0.04616    0.04284 =
          0.03824   -0.00819    0.01761   -0.01573
 F6    3    0.623355    0.767115    0.521751    11.00000    0.04733    0.02640 =
          0.05320   -0.00989   -0.00427   -0.01220
 C4    1    0.518740    0.672085    0.608526    11.00000    0.03637    0.04117 =
          0.03979   -0.02168    0.00197   -0.01620
 F7    3    0.411871    0.714544    0.583621    11.00000    0.02721    0.05233 =
          0.06938   -0.03363    0.00800   -0.00438
 F8    3    0.579573    0.704095    0.639128    11.00000    0.05160    0.05701 =
          0.04588   -0.03598    0.00753   -0.02159
 F9    3    0.484450    0.617417    0.648167    11.00000    0.05265    0.05620 =
          0.03711   -0.02188    0.01829   -0.02719
 RESI 0
 RESI CCF3 6
 O1    2    0.626000    0.464005    0.612438    11.00000    0.02129    0.02502 =
          0.01724   -0.00435   -0.00102   -0.00497
 C1    1    0.659261    0.405363    0.658123    11.00000    0.02341    0.02401 =
          0.01936   -0.00581    0.00019   -0.00510
 C2    1    0.798691    0.403032    0.679467    11.00000    0.02344    0.02966 =
          0.02537   -0.00582   -0.00334   -0.00041
 F1    3    0.804036    0.443407    0.713618    11.00000    0.03598    0.04384 =
          0.03758   -0.01778   -0.01372   -0.00586
 F2    3    0.853046    0.339074    0.711113    11.00000    0.03409    0.03594 =
          0.03983   -0.00322   -0.00936    0.00590
 F3    3    0.870555    0.423010    0.633826    11.00000    0.02095    0.04662 =
          0.03789   -0.00611    0.00173   -0.00479
 C3    1    0.652807    0.342166    0.636205    11.00000    0.03838    0.03091 =
          0.02656   -0.00938    0.00334   -0.01168
 F4    3    0.545663    0.352358    0.603339    11.00000    0.05272    0.05034 =
          0.04131   -0.02150   -0.00711   -0.02322
 F5    3    0.749210    0.332842    0.601431    11.00000    0.05792    0.03762 =
          0.03483   -0.01879    0.01514   -0.01029
 F6    3    0.657137    0.284308    0.679642    11.00000    0.05749    0.02562 =
          0.04315   -0.00669    0.00837   -0.01318
 C4    1    0.571319    0.404263    0.711178    11.00000    0.02975    0.03155 =
          0.02130   -0.00343   -0.00142   -0.00414
 F7    3    0.461734    0.384939    0.701301    11.00000    0.02921    0.04274 =
          0.03367   -0.00202    0.00471   -0.01175
 F8    3    0.624687    0.360327    0.761964    11.00000    0.04396    0.04307 =
          0.01718   -0.00014   -0.00052    0.00036
 F9    3    0.544122    0.466081    0.718473    11.00000    0.03680    0.03839 =
          0.02761   -0.01336    0.00434    0.00022
 RESI 0
 RESI CCF3 7
 O1    2    0.337145    1.040958    0.898879    11.00000    0.01026    0.03617 =
          0.02437   -0.00259   -0.00011   -0.00552
 C1    1    0.211792    1.035534    0.902582    11.00000    0.01027    0.03158 =
          0.02232   -0.00645   -0.00239   -0.00632
 C2    1    0.162395    1.030755    0.842414    11.00000    0.01914    0.03676 =
          0.02864   -0.01185   -0.00249   -0.00641
 F1    3    0.205166    0.969683    0.835366    11.00000    0.04063    0.04132 =
          0.04258   -0.02371   -0.00138   -0.00432
 F2    3    0.035966    1.042335    0.836474    11.00000    0.01791    0.05582 =
          0.03339   -0.01668   -0.00675   -0.00854
 F3    3    0.203772    1.077466    0.797168    11.00000    0.02597    0.04839 =
          0.01884   -0.00940   -0.00047   -0.00754
 C3    1    0.137775    1.100421    0.915787    11.00000    0.02207    0.03308 =
          0.02001   -0.00888    0.00125   -0.00536
 F4    3    0.199950    1.116788    0.956991    11.00000    0.03808    0.04442 =
          0.02493   -0.01671   -0.00314   -0.01169
 F5    3    0.125699    1.154992    0.866539    11.00000    0.03533    0.03030 =
          0.02660   -0.00504   -0.00237   -0.00124
 F6    3    0.021915    1.092576    0.933917    11.00000    0.01999    0.04968 =
          0.03750   -0.01439    0.00888   -0.00348
 C4    1    0.192721    0.970264    0.952874    11.00000    0.01905    0.03303 =
          0.02864   -0.00496    0.00206   -0.00652
 F7    3    0.202362    0.980771    1.005735    11.00000    0.03230    0.04634 =
          0.02262   -0.00008   -0.00028   -0.01239
 F8    3    0.079608    0.952424    0.947675    11.00000    0.02742    0.04817 =
          0.04336   -0.00523    0.00189   -0.02309
 F9    3    0.282196    0.917904    0.951932    11.00000    0.03812    0.03223 =
          0.04466    0.00112    0.00651    0.00038
 RESI 0
 RESI CCF3 8
 O1    2    0.576877    1.081766    0.894799    11.00000    0.01847    0.02433 =
          0.01940   -0.00286   -0.00207   -0.00728
 C1    1    0.576549    1.149009    0.866264    11.00000    0.01566    0.02285 =
          0.01770   -0.00405   -0.00263   -0.00595
 C2    1    0.489632    1.196000    0.896368    11.00000    0.02163    0.03147 =
          0.02517   -0.00820    0.00321   -0.00604
 F1    3    0.366348    1.200014    0.880553    11.00000    0.01555    0.03712 =
          0.04209   -0.01195    0.00211   -0.00367
 F2    3    0.514348    1.259739    0.881214    11.00000    0.03024    0.02905 =
          0.05125   -0.01975    0.00291   -0.00707
 F3    3    0.501111    1.170686    0.954848    11.00000    0.03797    0.05607 =
          0.02233   -0.01544    0.00516    0.00017
 C3    1    0.715697    1.162684    0.868628    11.00000    0.01993    0.02795 =
          0.02554   -0.00485   -0.00104   -0.00973
 F4    3    0.796735    1.112532    0.858107    11.00000    0.01705    0.03650 =
          0.03837   -0.01020    0.00419   -0.00494
 F5    3    0.745935    1.165913    0.922857    11.00000    0.02493    0.03489 =
          0.02980   -0.00767   -0.00879   -0.01322
 F6    3    0.731313    1.221644    0.829447    11.00000    0.02341    0.03468 =
          0.03191    0.00049    0.00029   -0.01429
 C4    1    0.530513    1.166559    0.799925    11.00000    0.02239    0.03035 =
          0.01920   -0.00455   -0.00108   -0.01046
 F7    3    0.620021    1.141441    0.768751    11.00000    0.03654    0.04756 =
          0.02004   -0.01196    0.00580   -0.00813
 F8    3    0.498553    1.233813    0.773906    11.00000    0.03070    0.03062 =
          0.02268    0.00101   -0.00428   -0.00905
 F9    3    0.428231    1.138253    0.795650    11.00000    0.02727    0.03837 =
          0.02275   -0.00402   -0.00750   -0.01568
 RESI 0
 RESI CCF3 9
 O1    2    0.569854    0.939435    0.916711    11.00000    0.02022    0.02192 =
          0.02352   -0.00830    0.00095   -0.00005
 C1    1    0.627196    0.907809    0.878397    11.00000    0.02218    0.03160 =
          0.01761   -0.01237   -0.00223    0.00013
 C2    1    0.763257    0.925906    0.866856    11.00000    0.02375    0.06459 =
          0.03489   -0.02555    0.00411   -0.00699
 F1    3    0.758171    0.988204    0.828711    11.00000    0.04897    0.06342 =
          0.04833   -0.02653    0.02224   -0.02753
 F2    3    0.836759    0.881071    0.844168    11.00000    0.02718    0.08991 =
          0.05253   -0.03688    0.00479    0.00689
 F3    3    0.820461    0.924477    0.916946    11.00000    0.02443    0.11709 =
          0.04393   -0.04359   -0.00278   -0.01468
 C3    1    0.634640    0.829710    0.906188    11.00000    0.05540    0.03498 =
          0.02597   -0.01384   -0.00022   -0.00005
 F4    3    0.524292    0.814711    0.927771    11.00000    0.07579    0.03592 =
          0.03859   -0.01275    0.01217   -0.02168
 F5    3    0.722785    0.806175    0.950507    11.00000    0.07246    0.04689 =
          0.03603   -0.00701   -0.01561    0.02601
 F6    3    0.664198    0.795535    0.865769    11.00000    0.09385    0.03579 =
          0.04098   -0.02194    0.00788    0.00485
 C4    1    0.549932    0.931679    0.817497    11.00000    0.03138    0.03981 =
          0.02420   -0.01495   -0.00483   -0.00309
 F7    3    0.448956    0.899682    0.822017    11.00000    0.03152    0.06623 =
          0.04631   -0.02711   -0.00704   -0.01319
 F8    3    0.616380    0.918105    0.773765    11.00000    0.04262    0.05100 =
          0.02231   -0.01803    0.00041   -0.00331
 F9    3    0.507257    0.998499    0.802739    11.00000    0.04406    0.03525 =
          0.02822   -0.00807   -0.01040    0.00636
 RESI 0
 RESI CCF3 10
 O1    2    0.880771    0.516977    0.888290    11.00000    0.02100    0.02654 =
          0.01865   -0.00627   -0.00379   -0.00194
 C1    1    0.852410    0.570506    0.838369    11.00000    0.02691    0.03031 =
          0.01969   -0.00691   -0.00318   -0.00493
 C2    1    0.947812    0.564250    0.789494    11.00000    0.03254    0.04952 =
          0.02056   -0.00681   -0.00199   -0.00643
 F1    3    1.056252    0.583773    0.800293    11.00000    0.03228    0.07630 =
          0.03578    0.00137    0.00201   -0.02041
 F2    3    0.902033    0.604089    0.735838    11.00000    0.04671    0.06710 =
          0.01805   -0.00421   -0.00069    0.00077
 F3    3    0.975520    0.500319    0.788062    11.00000    0.04059    0.05681 =
          0.03069   -0.01921    0.00223    0.00728
 C3    1    0.716157    0.569350    0.814976    11.00000    0.02736    0.04150 =
          0.02759   -0.01007   -0.00761    0.00563
 F4    3    0.638187    0.554860    0.859545    11.00000    0.02238    0.06282 =
          0.03821   -0.01177   -0.00125    0.00298
 F5    3    0.717631    0.522312    0.787058    11.00000    0.03878    0.06147 =
          0.03960   -0.02490   -0.01329   -0.00708
 F6    3    0.664442    0.629930    0.776771    11.00000    0.04631    0.05189 =
          0.03673   -0.00272   -0.01452    0.01431
 C4    1    0.851949    0.639092    0.852775    11.00000    0.06981    0.03121 =
          0.02460   -0.00404   -0.00339   -0.01483
 F7    3    0.747999    0.653952    0.881695    11.00000    0.09562    0.03125 =
          0.03621   -0.01316    0.00933    0.00369
 F8    3    0.855421    0.691578    0.804910    11.00000    0.10370    0.03253 =
          0.03806   -0.00020    0.00091   -0.02129
 F9    3    0.953083    0.632982    0.888275    11.00000    0.09811    0.05176 =
          0.04336   -0.01280   -0.01746   -0.04189
 RESI 0
 RESI CCF3 11
 O1    2    0.944347    0.387831    0.974021    11.00000    0.01989    0.02328 =
          0.02678   -0.01025   -0.00127   -0.00814
 C1    1    0.894111    0.335380    0.963564    11.00000    0.01877    0.02386 =
          0.03666   -0.01458   -0.00142   -0.00782
 C2    1    0.973274    0.305326    0.919223    11.00000    0.03070    0.03896 =
          0.05108   -0.02526    0.00372   -0.01416
 F1    3    1.080740    0.264066    0.946608    11.00000    0.02302    0.04113 =
          0.07720   -0.03284    0.00525   -0.00247
 F2    3    0.909243    0.270062    0.893418    11.00000    0.03688    0.05588 =
          0.06435   -0.04600    0.01022   -0.02161
 F3    3    1.007149    0.356794    0.874837    11.00000    0.04171    0.05130 =
          0.03729   -0.02310    0.00947   -0.02240
 C3    1    0.754323    0.360359    0.938812    11.00000    0.02614    0.03561 =
          0.06003   -0.02329   -0.00240   -0.00858
 F4    3    0.692679    0.402342    0.966286    11.00000    0.01884    0.04339 =
          0.07223   -0.03455   -0.00356   -0.00009
 F5    3    0.752612    0.394405    0.880369    11.00000    0.04346    0.05010 =
          0.05424   -0.01450   -0.02449   -0.00897
 F6    3    0.691492    0.307934    0.945421    11.00000    0.02066    0.04874 =
          0.08736   -0.03942    0.00273   -0.01449
 C4    1    0.897610    0.278207    1.023719    11.00000    0.03731    0.03549 =
          0.04832   -0.01114    0.00546   -0.01451
 F7    3    0.806099    0.298319    1.057970    11.00000    0.06099    0.04844 =
          0.05895   -0.01776    0.02987   -0.02182
 F8    3    0.879145    0.218940    1.016163    11.00000    0.05827    0.02581 =
          0.07517   -0.01089   -0.00448   -0.01812
 F9    3    1.008423    0.266821    1.052902    11.00000    0.04480    0.03059 =
          0.04505   -0.00501   -0.01022   -0.00524
 RESI 0
 RESI CCF3 12
 O1    2    1.140267    0.461917    0.910955    11.00000    0.01384    0.03255 =
          0.02270   -0.01169    0.00044   -0.00281
 C1    1    1.269483    0.443281    0.918160    11.00000    0.01285    0.03176 =
          0.02494   -0.01346    0.00111   -0.00567
 C2    1    1.326710    0.453754    0.856221    11.00000    0.02246    0.04556 =
          0.02901   -0.01341    0.00528   -0.00996
 F1    3    1.327745    0.520069    0.829765    11.00000    0.04078    0.05297 =
          0.03670   -0.00045    0.01080   -0.01574
 F2    3    1.445884    0.420839    0.859996    11.00000    0.02206    0.06584 =
          0.04194   -0.02164    0.01423   -0.00566
 F3    3    1.257890    0.431669    0.821370    11.00000    0.03714    0.07425 =
          0.02773   -0.02762    0.00446   -0.01396
 C3    1    1.305067    0.366259    0.954640    11.00000    0.01775    0.03191 =
          0.03205   -0.01249   -0.00089   -0.00268
 F4    3    1.231124    0.351549    1.000241    11.00000    0.02750    0.03732 =
          0.03013   -0.00491    0.00297   -0.00587
 F5    3    1.288896    0.326021    0.921036    11.00000    0.02906    0.03590 =
          0.04610   -0.02396    0.00387   -0.00531
 F6    3    1.425569    0.350114    0.975800    11.00000    0.01857    0.04428 =
          0.04885   -0.01198   -0.00582    0.00033
 C4    1    1.320867    0.489276    0.951368    11.00000    0.01682    0.03505 =
          0.03327   -0.01788    0.00176   -0.00685
 F7    3    1.297701    0.469241    1.008736    11.00000    0.03428    0.05039 =
          0.03138   -0.02422   -0.00198   -0.00807
 F8    3    1.446696    0.487081    0.946576    11.00000    0.01755    0.05349 =
          0.05746   -0.02847    0.00003   -0.01294
 F9    3    1.265322    0.554335    0.928975    11.00000    0.03304    0.03362 =
          0.05527   -0.02088   -0.00285   -0.00805
 RESI 0
 RESI CCF3 13
 PART 2  -21
 O1    2    1.169071    0.980668    0.597196   -21.00000    0.01717    0.05665 =
          0.02704   -0.02168   -0.00110   -0.00831
 C1    1    1.267248    1.006339    0.615127   -21.00000    0.01545    0.06126 =
          0.03367   -0.02171   -0.00009   -0.01138
 C2    1    1.228558    1.033774    0.668288   -21.00000    0.02868    0.06039 =
          0.02734   -0.01603   -0.00034   -0.01600
 F1    3    1.152105    1.094549    0.650532   -21.00000    0.03550    0.07065 =
          0.04081   -0.03605   -0.00760   -0.00578
 F2    3    1.328077    1.043001    0.697259   -21.00000    0.04179    0.07928 =
          0.03803   -0.02625   -0.00630   -0.02619
 F3    3    1.164928    0.991645    0.707159   -21.00000    0.05725    0.08873 =
          0.02559   -0.02321    0.00403   -0.03860
 C3    1    1.385181    0.948884    0.632735   -21.00000    0.02289    0.06432 =
          0.05854   -0.01967   -0.01122   -0.00557
 F4    3    1.400670    0.913522    0.593382   -21.00000    0.01357    0.06299 =
          0.06875   -0.02503   -0.01501    0.00928
 F5    3    1.371324    0.906244    0.685833   -21.00000    0.05552    0.08234 =
          0.07050   -0.00422    0.00717    0.00214
 F6    3    1.490643    0.975209    0.635459   -21.00000    0.02349    0.08582 =
          0.06072   -0.02431   -0.01861   -0.01024
 C4    1    1.299241    1.065274    0.562034   -21.00000    0.01618    0.06850 =
          0.02941   -0.01710    0.00050   -0.01066
 F7    3    1.370154    1.042275    0.523258   -21.00000    0.05972    0.07328 =
          0.04962   -0.02444    0.03081   -0.01571
 F8    3    1.361705    1.107816    0.578801   -21.00000    0.03335    0.07361 =
          0.00961   -0.00740    0.00429   -0.02581
 F9    3    1.188868    1.100873    0.535818   -21.00000    0.02360    0.08963 =
          0.05265   -0.01383   -0.01064   -0.00466
 PART 0
 RESI 0
 HKLF 4



 Covalent radii and connectivity table for  p-1-firsttry_a.res in P-1                                                  
 C      0.770
 O      0.660
 F      0.640
 AL     1.250
 NI     1.250

 Ni1 - C3 C1 C2 C4
 O1 - C1
 C1 - O1 Ni1
 Al1 - O1_13^b O1_2 O1_3 O1_1^a F1
 F1 - Al1 Al1_$1
 Ni2 - C8 C6 C5 C7
 O2 - C2
 C2 - O2 Ni1
 F2 - Al2_$2 Al2
 Al2 - O1_4 O1_6 O1_5 F2
 Al3 - O1_7 O1_8 O1_9 F3
 O3 - C3
 C3 - O3 Ni1
 F3 - Al3 Al3_$3
 C8 - O8 Ni2
 O8 - C8
 C7 - O7 Ni2
 O7 - C7
 C6 - O6 Ni2
 O6 - C6
 C5 - O5 Ni2
 O5 - C5
 F4 - Al4 Al4_$4
 O4 - C4
 C4 - O4 Ni1
 Al4 - O1_12 O1_10 O1_11 F4
 O1_1^a - C1_1^a Al1
 C1_1^a - O1_1^a C2_1^a C3_1^a C4_1^a
 C2_1^a - F2_1^a F3_1^a F1_1^a C1_1^a
 F1_1^a - C2_1^a
 F2_1^a - C2_1^a
 F3_1^a - C2_1^a
 C3_1^a - F4_1^a F5_1^a F6_1^a C1_1^a
 F4_1^a - C3_1^a
 F5_1^a - C3_1^a
 F6_1^a - C3_1^a
 C4_1^a - F7_1^a F9_1^a F8_1^a C1_1^a
 F7_1^a - C4_1^a
 F8_1^a - C4_1^a
 F9_1^a - C4_1^a
 O1_2 - C1_2 Al1
 C1_2 - O1_2 C2_2 C4_2 C3_2
 C2_2 - F1_2 F3_2 F2_2 C1_2
 F1_2 - C2_2
 F2_2 - C2_2
 F3_2 - C2_2
 C3_2 - F6_2 F4_2 F5_2 C1_2
 F4_2 - C3_2
 F5_2 - C3_2
 F6_2 - C3_2
 C4_2 - F9_2 F8_2 F7_2 C1_2
 F7_2 - C4_2
 F8_2 - C4_2
 F9_2 - C4_2
 O1_3 - C1_3 Al1
 C1_3 - O1_3 C4_3 C3_3 C2_3
 C2_3 - F2_3 F3_3 F1_3 C1_3
 F1_3 - C2_3
 F2_3 - C2_3
 F3_3 - C2_3
 C3_3 - F4_3 F6_3 F5_3 C1_3
 F4_3 - C3_3
 F5_3 - C3_3
 F6_3 - C3_3
 C4_3 - F9_3 F8_3 F7_3 C1_3
 F7_3 - C4_3
 F8_3 - C4_3
 F9_3 - C4_3
 O1_4 - C1_4 Al2
 C1_4 - O1_4 C3_4 C4_4 C2_4
 C2_4 - F3_4 F2_4 F1_4 C1_4
 F1_4 - C2_4
 F2_4 - C2_4
 F3_4 - C2_4
 C3_4 - F4_4 F5_4 F6_4 C1_4
 F4_4 - C3_4
 F5_4 - C3_4
 F6_4 - C3_4
 C4_4 - F9_4 F7_4 F8_4 C1_4
 F7_4 - C4_4
 F8_4 - C4_4
 F9_4 - C4_4
 O1_5 - C1_5 Al2
 C1_5 - O1_5 C4_5 C3_5 C2_5
 C2_5 - F3_5 F1_5 F2_5 C1_5
 F1_5 - C2_5
 F2_5 - C2_5
 F3_5 - C2_5
 C3_5 - F5_5 F6_5 F4_5 C1_5
 F4_5 - C3_5
 F5_5 - C3_5
 F6_5 - C3_5
 C4_5 - F8_5 F7_5 F9_5 C1_5
 F7_5 - C4_5
 F8_5 - C4_5
 F9_5 - C4_5
 O1_6 - C1_6 Al2
 C1_6 - O1_6 C3_6 C4_6 C2_6
 C2_6 - F1_6 F3_6 F2_6 C1_6
 F1_6 - C2_6
 F2_6 - C2_6
 F3_6 - C2_6
 C3_6 - F6_6 F4_6 F5_6 C1_6
 F4_6 - C3_6
 F5_6 - C3_6
 F6_6 - C3_6
 C4_6 - F9_6 F7_6 F8_6 C1_6
 F7_6 - C4_6
 F8_6 - C4_6
 F9_6 - C4_6
 O1_7 - C1_7 Al3
 C1_7 - O1_7 C2_7 C3_7 C4_7
 C2_7 - F1_7 F2_7 F3_7 C1_7
 F1_7 - C2_7
 F2_7 - C2_7
 F3_7 - C2_7
 C3_7 - F6_7 F4_7 F5_7 C1_7
 F4_7 - C3_7
 F5_7 - C3_7
 F6_7 - C3_7
 C4_7 - F9_7 F7_7 F8_7 C1_7
 F7_7 - C4_7
 F8_7 - C4_7
 F9_7 - C4_7
 O1_8 - C1_8 Al3
 C1_8 - O1_8 C2_8 C3_8 C4_8
 C2_8 - F3_8 F2_8 F1_8 C1_8
 F1_8 - C2_8
 F2_8 - C2_8
 F3_8 - C2_8
 C3_8 - F4_8 F6_8 F5_8 C1_8
 F4_8 - C3_8
 F5_8 - C3_8
 F6_8 - C3_8
 C4_8 - F8_8 F7_8 F9_8 C1_8
 F7_8 - C4_8
 F8_8 - C4_8
 F9_8 - C4_8
 O1_9 - C1_9 Al3
 C1_9 - O1_9 C3_9 C2_9 C4_9
 C2_9 - F3_9 F1_9 F2_9 C1_9
 F1_9 - C2_9
 F2_9 - C2_9
 F3_9 - C2_9
 C3_9 - F4_9 F5_9 F6_9 C1_9
 F4_9 - C3_9
 F5_9 - C3_9
 F6_9 - C3_9
 C4_9 - F8_9 F9_9 F7_9 C1_9
 F7_9 - C4_9
 F8_9 - C4_9
 F9_9 - C4_9
 O1_10 - C1_10 Al4
 C1_10 - O1_10 C4_10 C2_10 C3_10
 C2_10 - F3_10 F1_10 F2_10 C1_10
 F1_10 - C2_10
 F2_10 - C2_10
 F3_10 - C2_10
 C3_10 - F5_10 F4_10 F6_10 C1_10
 F4_10 - C3_10
 F5_10 - C3_10
 F6_10 - C3_10
 C4_10 - F8_10 F9_10 F7_10 C1_10
 F7_10 - C4_10
 F8_10 - C4_10
 F9_10 - C4_10
 O1_11 - C1_11 Al4
 C1_11 - O1_11 C2_11 C3_11 C4_11
 C2_11 - F2_11 F1_11 F3_11 C1_11
 F1_11 - C2_11
 F2_11 - C2_11
 F3_11 - C2_11
 C3_11 - F4_11 F6_11 F5_11 C1_11
 F4_11 - C3_11
 F5_11 - C3_11
 F6_11 - C3_11
 C4_11 - F9_11 F8_11 F7_11 C1_11
 F7_11 - C4_11
 F8_11 - C4_11
 F9_11 - C4_11
 O1_12 - C1_12 Al4
 C1_12 - O1_12 C2_12 C4_12 C3_12
 C2_12 - F3_12 F1_12 F2_12 C1_12
 F1_12 - C2_12
 F2_12 - C2_12
 F3_12 - C2_12
 C3_12 - F4_12 F5_12 F6_12 C1_12
 F4_12 - C3_12
 F5_12 - C3_12
 F6_12 - C3_12
 C4_12 - F7_12 F9_12 F8_12 C1_12
 F7_12 - C4_12
 F8_12 - C4_12
 F9_12 - C4_12
 O1_13^b - C1_13^b Al1
 C1_13^b - O1_13^b C2_13^b C3_13^b C4_13^b
 C2_13^b - F2_13^b F3_13^b F1_13^b C1_13^b
 F1_13^b - C2_13^b
 F2_13^b - C2_13^b
 F3_13^b - C2_13^b
 C3_13^b - F5_13^b F4_13^b F6_13^b C1_13^b
 F4_13^b - C3_13^b
 F5_13^b - C3_13^b
 F6_13^b - C3_13^b
 C4_13^b - F8_13^b F7_13^b F9_13^b C1_13^b
 F7_13^b - C4_13^b
 F8_13^b - C4_13^b
 F9_13^b - C4_13^b


 Operators for generating equivalent atoms:
 $1   -x+2, -y+2, -z+1
 $2   -x+1, -y+1, -z+1
 $3   -x+1, -y+2, -z+2
 $4   -x+2, -y+1, -z+2


   157580  Reflections read, of which      21  rejected

 -13 =< h =< 13,    -25 =< k =< 25,    -29 =< l =< 29,   Max. 2-theta =   52.75

        0  Systematic absence violations (I>3sig(I)) before merging

        0  Inconsistent equivalents

    19930  Unique reflections, of which       0  suppressed

 R(int) = 0.0902     R(sigma) = 0.0528      Friedel opposites merged

 Maximum memory for data reduction =    14729 /   199550


 Reflection statistics for all twin components combined (TWST 0 set)
 Number of data for d > 0.800A (CIF: max) and d > 0.833A (CIF: full)
 (ignoring systematic absences):
 Unique reflections found (point group)      19930   17678
 Unique reflections possible (point group)   19978   17687
 Unique reflections found (Laue group)       19930   17678
 Unique reflections possible (Laue group)    19978   17687

 Special position constraints for F1
 x =  1.0000   y =  1.0000   z =  0.5000   sof = 0.50000   
 Input constraints retained (at least in part) for  sof

 Special position constraints for F2
 x =  0.5000   y =  0.5000   z =  0.5000   sof = 0.50000   
 Input constraints retained (at least in part) for  sof

 Special position constraints for F3
 x =  0.5000   y =  1.0000   z =  1.0000   sof = 0.50000   
 Input constraints retained (at least in part) for  sof

 Special position constraints for F4
 x =  1.0000   y =  0.5000   z =  1.0000   sof = 0.50000   
 Input constraints retained (at least in part) for  sof


 Least-squares cycle   1   Maximum vector length =  623   Memory required =     70 /  19051 /  4013146

 wR2 =  0.1759 before cycle   1 for   19930 data and   1838 /   1838 parameters


 Summary of restraints applied in cycle    1

               ANTIBUMP  DFIX    DANG SAME/SADI CHIV/Z CHIV/NZ   FLAT    DELU    RIGU    SIMU    ISOR    SUMP

       Number       0       0       0   22659       0       0       0       0    1443    1086       0       0

 rms sigma      0.0000  0.0000  0.0000  0.0346  0.0000  0.0000  0.0000  0.0000  0.0453  0.0699  0.0000  0.0000

 rms deviation  0.0000  0.0000  0.0000  0.0174  0.0000  0.0000  0.0000  0.0000  0.0092  0.0117  0.0000  0.0000


 GooF = S =     1.077;     Restrained GooF =      0.806 for   25188 restraints

 Weight = 1 / [ sigma^2(Fo^2) + ( 0.0721 * P )^2 +  16.86 * P ]   where  P = ( Max ( Fo^2, 0 ) + 2 * Fc^2 ) / 3


     N      value        esd    shift/esd  parameter

     1     0.19088     0.00026    -0.009    OSF
     2     0.88665     0.00448     0.000   FVAR  2 

 Mean shift/esd =   0.001  Maximum =     0.012 for  U13 Ni1      

 Max. shift = 0.000 A for F9_13^b      Max. dU = 0.000 for F5_10   


 Least-squares cycle   2   Maximum vector length =  623   Memory required =     70 /  19051 /  4013146

 wR2 =  0.1759 before cycle   2 for   19930 data and   1838 /   1838 parameters


 Summary of restraints applied in cycle    2

               ANTIBUMP  DFIX    DANG SAME/SADI CHIV/Z CHIV/NZ   FLAT    DELU    RIGU    SIMU    ISOR    SUMP

       Number       0       0       0   22659       0       0       0       0    1443    1086       0       0

 rms sigma      0.0000  0.0000  0.0000  0.0346  0.0000  0.0000  0.0000  0.0000  0.0453  0.0699  0.0000  0.0000

 rms deviation  0.0000  0.0000  0.0000  0.0174  0.0000  0.0000  0.0000  0.0000  0.0092  0.0117  0.0000  0.0000


 GooF = S =     1.077;     Restrained GooF =      0.806 for   25188 restraints

 Weight = 1 / [ sigma^2(Fo^2) + ( 0.0721 * P )^2 +  16.86 * P ]   where  P = ( Max ( Fo^2, 0 ) + 2 * Fc^2 ) / 3


     N      value        esd    shift/esd  parameter

     1     0.19088     0.00026    -0.001    OSF
     2     0.88665     0.00448     0.000   FVAR  2 

 Mean shift/esd =   0.000  Maximum =    -0.004 for   z  Ni1      

 Max. shift = 0.000 A for F2_13^b      Max. dU = 0.000 for F7_4    


 Least-squares cycle   3   Maximum vector length =  623   Memory required =     70 /  19051 /  4013146

 wR2 =  0.1759 before cycle   3 for   19930 data and   1838 /   1838 parameters


 Summary of restraints applied in cycle    3

               ANTIBUMP  DFIX    DANG SAME/SADI CHIV/Z CHIV/NZ   FLAT    DELU    RIGU    SIMU    ISOR    SUMP

       Number       0       0       0   22659       0       0       0       0    1443    1086       0       0

 rms sigma      0.0000  0.0000  0.0000  0.0346  0.0000  0.0000  0.0000  0.0000  0.0453  0.0699  0.0000  0.0000

 rms deviation  0.0000  0.0000  0.0000  0.0174  0.0000  0.0000  0.0000  0.0000  0.0092  0.0117  0.0000  0.0000


 GooF = S =     1.077;     Restrained GooF =      0.806 for   25188 restraints

 Weight = 1 / [ sigma^2(Fo^2) + ( 0.0721 * P )^2 +  16.86 * P ]   where  P = ( Max ( Fo^2, 0 ) + 2 * Fc^2 ) / 3


     N      value        esd    shift/esd  parameter

     1     0.19088     0.00026     0.000    OSF
     2     0.88665     0.00448     0.000   FVAR  2 

 Mean shift/esd =   0.000  Maximum =     0.001 for   z  Al3      

 Max. shift = 0.000 A for F9_13^b      Max. dU = 0.000 for F8_13^b 


 Largest correlation matrix elements

    -0.845 z F2_13^b / z F2_1^a             -0.737 y O1_13^b / y O1_1^a             -0.681 y F6_13^b / U22 F8_1^a
    -0.842 z O1_13^b / z O1_1^a             -0.735 x F6_13^b / x F8_1^a             -0.679 z F3_13^b / U33 F3_1^a
    -0.818 z F6_13^b / z F8_1^a             -0.729 y F2_13^b / U22 F2_1^a           -0.679 z F6_13^b / U23 F8_1^a
    -0.792 U12 F3_13^b / U11 F3_13^b        -0.727 U12 F4_13^b / U13 F4_13^b         0.674 x F6_13^b / x C1_13^b
    -0.777 x O1_13^b / x O1_1^a             -0.708 y F2_13^b / y F2_1^a             -0.672 z F2_13^b / U23 F2_1^a
    -0.757 z F8_13^b / z F6_1^a             -0.699 U12 F8_13^b / U22 F8_13^b         0.671 z F5_13^b / z C3_13^b
    -0.754 U23 F4_13^b / U22 F4_13^b         0.696 U33 F5_13^b / U33 C3_13^b         0.671 U33 F5_13^b / U33 F4_13^b
    -0.741 x F2_13^b / x F2_1^a             -0.694 U13 F3_13^b / U23 F3_13^b         0.670 y F1_13^b / y C2_13^b



  p-1-firsttry_a.res in P-1                                                  

 ATOM           x        y        z         sof        U11      U22      U33      U23      U13      U12       Ueq

 Ni1        -0.15004  0.75016  0.30910    1.00000    0.02490  0.04004  0.02635 -0.00993 -0.00216 -0.00470   0.03046
   0.00094   0.00006  0.00003  0.00003    0.00000    0.00032  0.00037  0.00032  0.00027  0.00024  0.00027   0.00015

 O1         -0.03265  0.66913  0.43200    1.00000    0.03396  0.06368  0.03118 -0.00066 -0.00265 -0.00818   0.04577
   0.00620   0.00036  0.00022  0.00017    0.00000    0.00207  0.00267  0.00210  0.00190  0.00164  0.00187   0.00098

 C1         -0.07613  0.70025  0.38720    1.00000    0.02597  0.03968  0.03492 -0.00998  0.00538 -0.00936   0.03329
   0.00785   0.00047  0.00028  0.00023    0.00000    0.00250  0.00289  0.00289  0.00234  0.00212  0.00216   0.00111

 Al1         1.01725  0.98158  0.57785    1.00000    0.01425  0.02480  0.01675 -0.00673  0.00040 -0.00625   0.01812
   0.00181   0.00011  0.00007  0.00005    0.00000    0.00059  0.00066  0.00058  0.00050  0.00046  0.00049   0.00026

 F1          1.00000  1.00000  0.50000    0.50000    0.01868  0.03149  0.01663 -0.00784 -0.00035 -0.00721   0.02175
   0.00000   0.00000  0.00000  0.00000    0.00000    0.00171  0.00195  0.00166  0.00144  0.00131  0.00146   0.00073

 Ni2         1.36733  0.73960  0.79637    1.00000    0.04802  0.04280  0.05023 -0.01744  0.01876 -0.01477   0.04541
   0.00124   0.00008  0.00004  0.00004    0.00000    0.00045  0.00042  0.00046  0.00035  0.00035  0.00035   0.00020

 O2          0.06966  0.82170  0.25545    1.00000    0.04047  0.05461  0.03688 -0.00579  0.00367 -0.01528   0.04479
   0.00615   0.00038  0.00022  0.00017    0.00000    0.00225  0.00248  0.00212  0.00183  0.00173  0.00195   0.00095

 C2         -0.00999  0.79567  0.27516    1.00000    0.03302  0.03874  0.02925 -0.00729 -0.00439 -0.00104   0.03480
   0.00803   0.00051  0.00028  0.00023    0.00000    0.00281  0.00289  0.00262  0.00221  0.00215  0.00232   0.00114

 F2          0.50000  0.50000  0.50000    0.50000    0.01973  0.02764  0.01538 -0.00836 -0.00011 -0.00790   0.02002
   0.00000   0.00000  0.00000  0.00000    0.00000    0.00171  0.00185  0.00161  0.00139  0.00129  0.00142   0.00070

 Al2         0.50755  0.52140  0.56776    1.00000    0.01605  0.02305  0.01617 -0.00662 -0.00031 -0.00624   0.01789
   0.00179   0.00012  0.00007  0.00005    0.00000    0.00060  0.00065  0.00059  0.00049  0.00046  0.00049   0.00026

 Al3         0.49250  1.01698  0.92217    1.00000    0.01275  0.01981  0.01396 -0.00553 -0.00050 -0.00357   0.01528
   0.00173   0.00011  0.00006  0.00005    0.00000    0.00056  0.00061  0.00055  0.00047  0.00043  0.00046   0.00024

 O3         -0.41014  0.80663  0.34436    1.00000    0.03397  0.10806  0.03817 -0.02391 -0.00224  0.01015   0.06207
   0.00738   0.00041  0.00029  0.00019    0.00000    0.00237  0.00403  0.00234  0.00246  0.00182  0.00240   0.00133

 C3         -0.31602  0.78486  0.33096    1.00000    0.03552  0.06501  0.02303 -0.01233 -0.00741 -0.00461   0.04173
   0.00825   0.00055  0.00033  0.00023    0.00000    0.00311  0.00387  0.00253  0.00251  0.00217  0.00273   0.00134

 F3          0.50000  1.00000  1.00000    0.50000    0.02004  0.02764  0.01234 -0.00700  0.00223 -0.00750   0.01936
   0.00000   0.00000  0.00000  0.00000    0.00000    0.00170  0.00184  0.00155  0.00136  0.00126  0.00141   0.00070

 C8          1.43221  0.68087  0.87294    1.00000    0.03312  0.06063  0.05638 -0.03025  0.00657 -0.00608   0.04745
   0.00943   0.00056  0.00035  0.00031    0.00000    0.00306  0.00399  0.00399  0.00333  0.00279  0.00278   0.00144

 O8          1.46993  0.64599  0.91754    1.00000    0.03930  0.08448  0.06096 -0.03303 -0.00221 -0.00086   0.06016
   0.00710   0.00042  0.00028  0.00023    0.00000    0.00245  0.00352  0.00309  0.00275  0.00218  0.00232   0.00122

 C7          1.32470  0.67320  0.75873    1.00000    0.05499  0.04953  0.03623 -0.00529  0.01161 -0.00826   0.04856
   0.01098   0.00063  0.00034  0.00027    0.00000    0.00382  0.00364  0.00316  0.00281  0.00271  0.00299   0.00147

 O7          1.30035  0.63682  0.73618    1.00000    0.07400  0.06358  0.04312 -0.02189  0.00470 -0.01946   0.05798
   0.00716   0.00048  0.00025  0.00020    0.00000    0.00328  0.00301  0.00247  0.00228  0.00221  0.00251   0.00118

 C6          1.23782  0.80138  0.81968    1.00000    0.06699  0.03430  0.03988 -0.01559  0.01355 -0.00959   0.04594
   0.00963   0.00066  0.00030  0.00026    0.00000    0.00417  0.00306  0.00321  0.00254  0.00286  0.00294   0.00142

 O6          1.15921  0.83643  0.83219    1.00000    0.07540  0.04606  0.06340 -0.01636  0.00820  0.00112   0.06286
   0.00797   0.00050  0.00024  0.00022    0.00000    0.00340  0.00264  0.00308  0.00232  0.00255  0.00245   0.00126

 C5          1.50471  0.78029  0.75322    1.00000    0.04762  0.03912  0.03733 -0.01833  0.00260 -0.00839   0.03971
   0.00834   0.00058  0.00029  0.00025    0.00000    0.00336  0.00305  0.00296  0.00244  0.00253  0.00260   0.00125

 O5          1.58517  0.80076  0.72942    1.00000    0.05885  0.05900  0.06533 -0.02578  0.02482 -0.03098   0.05706
   0.00693   0.00045  0.00024  0.00021    0.00000    0.00284  0.00280  0.00296  0.00232  0.00237  0.00235   0.00117

 F4          1.00000  0.50000  1.00000    0.50000    0.01902  0.02444  0.01832 -0.00872 -0.00297 -0.00404   0.02001
   0.00000   0.00000  0.00000  0.00000    0.00000    0.00170  0.00179  0.00167  0.00139  0.00131  0.00139   0.00070

 O4         -0.20795  0.68957  0.21037    1.00000    0.06374  0.05374  0.04065 -0.02212 -0.01052 -0.00280   0.05172
   0.00626   0.00044  0.00022  0.00018    0.00000    0.00286  0.00260  0.00232  0.00204  0.00200  0.00214   0.00107

 C4         -0.18984  0.71381  0.24529    1.00000    0.03587  0.03421  0.03166 -0.00500 -0.00247  0.00316   0.03594
   0.00860   0.00051  0.00027  0.00023    0.00000    0.00285  0.00281  0.00273  0.00228  0.00216  0.00223   0.00117

 Al4         0.99357  0.46434  0.93994    1.00000    0.01338  0.02288  0.01762 -0.00829 -0.00108 -0.00481   0.01725
   0.00176   0.00011  0.00006  0.00005    0.00000    0.00058  0.00064  0.00059  0.00049  0.00045  0.00048   0.00025

 O1_1^a      1.17514  0.97066  0.59650    0.88665    0.01717  0.05665  0.02704 -0.02168 -0.00110 -0.00831   0.03135
   0.00718   0.00052  0.00033  0.00030    0.00448    0.00164  0.00296  0.00173  0.00188  0.00132  0.00179   0.00103

 C1_1^a      1.27294  0.99680  0.61479    0.88665    0.02199  0.05545  0.02352 -0.01228 -0.00402 -0.01420   0.03260
   0.00858   0.00054  0.00030  0.00023    0.00448    0.00259  0.00327  0.00250  0.00234  0.00205  0.00233   0.00122

 C2_1^a      1.26109  0.99237  0.68125    0.88665    0.02868  0.06039  0.02734 -0.01603 -0.00034 -0.01600   0.03714
   0.00784   0.00051  0.00032  0.00023    0.00448    0.00267  0.00355  0.00262  0.00249  0.00206  0.00251   0.00128

 F1_1^a      1.29168  0.92638  0.71534    0.88665    0.05587  0.06445  0.02925  0.00204 -0.01006 -0.02275   0.05176
   0.00559   0.00039  0.00021  0.00016    0.00448    0.00250  0.00245  0.00188  0.00172  0.00171  0.00198   0.00110

 F2_1^a      1.33676  1.02833  0.69934    0.88665    0.04179  0.07928  0.03803 -0.02625 -0.00630 -0.02619   0.04922
   0.00663   0.00052  0.00032  0.00029    0.00448    0.00198  0.00383  0.00184  0.00236  0.00148  0.00215   0.00131

 F3_1^a      1.14238  1.01546  0.69289    0.88665    0.03365  0.08519  0.03207 -0.02670  0.00359 -0.01987   0.04712
   0.00989   0.00047  0.00029  0.00023    0.00448    0.00207  0.00359  0.00267  0.00233  0.00199  0.00227   0.00124

 C3_1^a      1.27229  1.07252  0.57840    0.88665    0.04056  0.05806  0.02994 -0.01136  0.00099 -0.02112   0.04170
   0.00910   0.00059  0.00033  0.00026    0.00448    0.00344  0.00356  0.00291  0.00267  0.00256  0.00276   0.00144

 F4_1^a      1.23945  1.08159  0.52205    0.88665    0.07427  0.06910  0.02906 -0.00007 -0.00667 -0.01912   0.05972
   0.00781   0.00054  0.00027  0.00018    0.00448    0.00363  0.00324  0.00208  0.00198  0.00222  0.00264   0.00130

 F5_1^a      1.18948  1.11571  0.59839    0.88665    0.04277  0.05228  0.05416 -0.01675 -0.00820 -0.01392   0.04879
   0.00535   0.00035  0.00020  0.00018    0.00448    0.00211  0.00228  0.00251  0.00185  0.00174  0.00173   0.00101

 F6_1^a      1.38742  1.08996  0.58097    0.88665    0.04427  0.07322  0.07035 -0.00344  0.00236 -0.03331   0.06369
   0.00904   0.00065  0.00035  0.00036    0.00448    0.00314  0.00378  0.00405  0.00296  0.00258  0.00298   0.00208

 C4_1^a      1.39866  0.95104  0.60656    0.88665    0.01964  0.06863  0.03707 -0.01857 -0.00577 -0.01182   0.04060
   0.00884   0.00052  0.00035  0.00026    0.00448    0.00267  0.00390  0.00317  0.00308  0.00227  0.00264   0.00142

 F7_1^a      1.42789  0.96657  0.55033    0.88665    0.02732  0.10220  0.04155 -0.02698  0.00696 -0.01788   0.05496
   0.00576   0.00033  0.00025  0.00016    0.00448    0.00188  0.00356  0.00208  0.00221  0.00153  0.00203   0.00119

 F8_1^a      1.49547  0.95843  0.63950    0.88665    0.02349  0.08582  0.06072 -0.02431 -0.01861 -0.01024   0.05591
   0.00783   0.00048  0.00030  0.00032    0.00448    0.00164  0.00397  0.00246  0.00285  0.00155  0.00213   0.00137

 F9_1^a      1.38755  0.88475  0.62440    0.88665    0.03327  0.06658  0.05179 -0.01829 -0.01059 -0.00487   0.05073
   0.00632   0.00041  0.00023  0.00021    0.00448    0.00216  0.00272  0.00260  0.00216  0.00203  0.00200   0.00109

 O1_2        0.93244  1.04924  0.59582    1.00000    0.03101  0.03626  0.03227 -0.01844 -0.00652  0.00254   0.03231
   0.00488   0.00031  0.00017  0.00015    0.00000    0.00180  0.00189  0.00182  0.00151  0.00141  0.00144   0.00076

 C1_2        0.82714  1.09793  0.58845    1.00000    0.02602  0.03093  0.03421 -0.01209  0.00323 -0.00381   0.02996
   0.00673   0.00042  0.00023  0.00020    0.00000    0.00229  0.00237  0.00242  0.00199  0.00183  0.00183   0.00098

 C2_2        0.76677  1.09126  0.64914    1.00000    0.04848  0.04214  0.03895 -0.01402  0.01197 -0.01343   0.04208
   0.00816   0.00052  0.00027  0.00023    0.00000    0.00318  0.00292  0.00279  0.00240  0.00226  0.00237   0.00121

 F1_2        0.69967  1.04049  0.66297    1.00000    0.07798  0.07602  0.05086 -0.01166  0.02252 -0.04798   0.06578
   0.00586   0.00040  0.00021  0.00017    0.00000    0.00273  0.00258  0.00218  0.00193  0.00194  0.00223   0.00110

 F2_2        0.68841  1.14908  0.64945    1.00000    0.06412  0.06404  0.05645 -0.02894  0.02785  0.00206   0.06065
   0.00642   0.00037  0.00019  0.00017    0.00000    0.00240  0.00231  0.00226  0.00188  0.00184  0.00184   0.00100

 F3_2        0.85556  1.07834  0.69253    1.00000    0.07557  0.05427  0.02885 -0.01571  0.00943 -0.01795   0.05134
   0.00510   0.00036  0.00018  0.00014    0.00000    0.00244  0.00208  0.00163  0.00148  0.00153  0.00179   0.00086

 C3_2        0.86834  1.16946  0.56528    1.00000    0.03403  0.03721  0.03048 -0.01282  0.00253 -0.01030   0.03279
   0.00693   0.00046  0.00025  0.00021    0.00000    0.00256  0.00258  0.00245  0.00206  0.00190  0.00202   0.00103

 F4_2        0.95029  1.17010  0.52275    1.00000    0.04207  0.07180  0.02982 -0.01328  0.00752 -0.02669   0.04628
   0.00466   0.00030  0.00019  0.00013    0.00000    0.00180  0.00229  0.00158  0.00152  0.00131  0.00164   0.00081

 F5_2        0.92676  1.18478  0.60838    1.00000    0.05402  0.04338  0.04179 -0.01627 -0.00551 -0.01876   0.04435
   0.00431   0.00032  0.00016  0.00014    0.00000    0.00200  0.00181  0.00174  0.00144  0.00146  0.00153   0.00077

 F6_2        0.77069  1.21933  0.54352    1.00000    0.05059  0.03419  0.05739 -0.00932 -0.01052 -0.00292   0.04873
   0.00503   0.00032  0.00016  0.00016    0.00000    0.00197  0.00169  0.00211  0.00150  0.00159  0.00143   0.00082

 C4_2        0.72894  1.09005  0.54353    1.00000    0.02320  0.03618  0.04253 -0.01765 -0.00095 -0.00182   0.03302
   0.00692   0.00043  0.00025  0.00022    0.00000    0.00227  0.00258  0.00265  0.00220  0.00195  0.00193   0.00104

 F7_2        0.76631  1.11274  0.48837    1.00000    0.03702  0.05315  0.03336 -0.01591 -0.00703 -0.00545   0.04071
   0.00437   0.00029  0.00017  0.00013    0.00000    0.00167  0.00191  0.00157  0.00139  0.00126  0.00141   0.00071

 F8_2        0.61387  1.12464  0.54614    1.00000    0.01954  0.05421  0.08221 -0.02362  0.00107 -0.00221   0.05167
   0.00521   0.00027  0.00018  0.00017    0.00000    0.00147  0.00205  0.00258  0.00186  0.00150  0.00137   0.00088

 F9_2        0.72133  1.02411  0.55396    1.00000    0.05107  0.03656  0.06492 -0.01480 -0.01744 -0.01334   0.05013
   0.00459   0.00033  0.00016  0.00016    0.00000    0.00202  0.00170  0.00222  0.00156  0.00167  0.00148   0.00086

 O1_3        0.96328  0.90530  0.59840    1.00000    0.03990  0.02836  0.02496 -0.00471  0.00285 -0.01540   0.03063
   0.00487   0.00033  0.00016  0.00014    0.00000    0.00197  0.00172  0.00165  0.00134  0.00141  0.00148   0.00074

 C1_3        0.95339  0.84814  0.64301    1.00000    0.03451  0.02594  0.02414 -0.00444  0.00817 -0.00936   0.02834
   0.00673   0.00043  0.00022  0.00019    0.00000    0.00242  0.00227  0.00220  0.00175  0.00182  0.00186   0.00096

 C2_3        0.91663  0.86688  0.70082    1.00000    0.05395  0.04350  0.03395 -0.01657  0.01459 -0.02113   0.04121
   0.00777   0.00053  0.00027  0.00022    0.00000    0.00314  0.00298  0.00262  0.00220  0.00234  0.00244   0.00121

 F1_3        0.79342  0.89462  0.69698    1.00000    0.05349  0.07627  0.06735 -0.03720  0.03166 -0.01592   0.06172
   0.00607   0.00035  0.00021  0.00018    0.00000    0.00213  0.00261  0.00249  0.00207  0.00185  0.00187   0.00100

 F2_3        0.93771  0.81349  0.74920    1.00000    0.10586  0.05016  0.02691 -0.00915  0.01613 -0.03702   0.05871
   0.00545   0.00041  0.00018  0.00014    0.00000    0.00311  0.00202  0.00163  0.00143  0.00175  0.00203   0.00102

 F3_3        0.98189  0.91393  0.70799    1.00000    0.07362  0.04574  0.03729 -0.01786  0.00460 -0.02829   0.04889
   0.00457   0.00035  0.00017  0.00014    0.00000    0.00237  0.00188  0.00174  0.00147  0.00159  0.00173   0.00084

 C3_3        1.08115  0.79726  0.65515    1.00000    0.04325  0.04001  0.03663 -0.00741  0.00459 -0.00763   0.04071
   0.00812   0.00050  0.00027  0.00023    0.00000    0.00294  0.00280  0.00276  0.00222  0.00218  0.00225   0.00118

 F4_3        1.13486  0.79406  0.60604    1.00000    0.04660  0.05685  0.05532 -0.01933  0.01836 -0.00052   0.05328
   0.00585   0.00033  0.00018  0.00016    0.00000    0.00200  0.00216  0.00208  0.00171  0.00162  0.00163   0.00087

 F5_3        1.16441  0.81885  0.68619    1.00000    0.04652  0.06090  0.05331 -0.00238 -0.01251 -0.01371   0.05609
   0.00521   0.00033  0.00019  0.00016    0.00000    0.00202  0.00226  0.00211  0.00173  0.00162  0.00170   0.00093

 F6_3        1.06773  0.73384  0.68688    1.00000    0.06578  0.03207  0.06465  0.00241  0.00023 -0.00202   0.05844
   0.00609   0.00037  0.00016  0.00017    0.00000    0.00243  0.00173  0.00238  0.00160  0.00187  0.00160   0.00097

 C4_3        0.84876  0.81371  0.62370    1.00000    0.05075  0.04009  0.03522 -0.01214  0.00691 -0.02110   0.04024
   0.00748   0.00052  0.00027  0.00022    0.00000    0.00308  0.00288  0.00271  0.00216  0.00226  0.00233   0.00118

 F7_3        0.89275  0.78626  0.58105    1.00000    0.08359  0.05637  0.04275 -0.02706  0.01808 -0.04195   0.05477
   0.00486   0.00038  0.00018  0.00015    0.00000    0.00264  0.00212  0.00187  0.00163  0.00175  0.00195   0.00094

 F8_3        0.81591  0.76395  0.66863    1.00000    0.06178  0.04647  0.04398 -0.00879  0.01310 -0.03405   0.04885
   0.00495   0.00034  0.00017  0.00014    0.00000    0.00219  0.00187  0.00183  0.00147  0.00157  0.00167   0.00084

 F9_3        0.74534  0.85852  0.60229    1.00000    0.04064  0.06167  0.05607 -0.00853 -0.00518 -0.02381   0.05289
   0.00500   0.00031  0.00018  0.00016    0.00000    0.00184  0.00220  0.00213  0.00171  0.00155  0.00161   0.00088

 O1_4        0.36390  0.51430  0.59867    1.00000    0.01614  0.03251  0.02015 -0.00791  0.00140 -0.00752   0.02250
   0.00432   0.00027  0.00016  0.00013    0.00000    0.00142  0.00171  0.00150  0.00128  0.00114  0.00125   0.00064

 C1_4        0.23443  0.52861  0.59433    1.00000    0.01529  0.03759  0.01740 -0.00857  0.00131 -0.00987   0.02269
   0.00585   0.00037  0.00022  0.00017    0.00000    0.00191  0.00235  0.00194  0.00173  0.00153  0.00172   0.00087

 C2_4        0.18408  0.50013  0.65701    1.00000    0.02297  0.04859  0.02288 -0.00969  0.00386 -0.01010   0.03118
   0.00688   0.00042  0.00026  0.00019    0.00000    0.00222  0.00277  0.00220  0.00204  0.00175  0.00203   0.00102

 F1_4        0.19295  0.43169  0.67218    1.00000    0.03618  0.04700  0.03328  0.00124  0.00744 -0.01689   0.04048
   0.00472   0.00028  0.00016  0.00013    0.00000    0.00165  0.00175  0.00160  0.00134  0.00127  0.00138   0.00072

 F2_4        0.06222  0.52663  0.65957    1.00000    0.02267  0.07122  0.03322 -0.01412  0.01097 -0.00558   0.04291
   0.00491   0.00026  0.00018  0.00013    0.00000    0.00142  0.00222  0.00161  0.00152  0.00118  0.00139   0.00076

 F3_4        0.25049  0.51474  0.69794    1.00000    0.03603  0.06838  0.01769 -0.01651  0.00223 -0.01097   0.03961
   0.00425   0.00028  0.00017  0.00012    0.00000    0.00162  0.00213  0.00133  0.00136  0.00114  0.00148   0.00072

 C3_4        0.18850  0.60711  0.57119    1.00000    0.02177  0.03784  0.02504 -0.00932 -0.00128 -0.00341   0.02837
   0.00665   0.00041  0.00024  0.00019    0.00000    0.00215  0.00250  0.00223  0.00188  0.00170  0.00187   0.00096

 F4_4        0.25657  0.63515  0.52612    1.00000    0.03273  0.03698  0.03243  0.00066  0.00041 -0.00813   0.03611
   0.00450   0.00027  0.00015  0.00012    0.00000    0.00154  0.00160  0.00151  0.00123  0.00118  0.00125   0.00066

 F5_4        0.20068  0.63679  0.61351    1.00000    0.03765  0.04176  0.04336 -0.02237 -0.00431 -0.00064   0.03948
   0.00429   0.00029  0.00016  0.00013    0.00000    0.00168  0.00173  0.00172  0.00141  0.00133  0.00135   0.00070

 F6_4        0.06602  0.62267  0.55196    1.00000    0.02010  0.05165  0.04632 -0.00939 -0.00863  0.00320   0.04147
   0.00464   0.00026  0.00016  0.00014    0.00000    0.00139  0.00190  0.00182  0.00148  0.00123  0.00128   0.00074

 C4_4        0.18451  0.49258  0.55183    1.00000    0.01990  0.04539  0.02694 -0.01364  0.00542 -0.01421   0.02910
   0.00643   0.00041  0.00025  0.00019    0.00000    0.00213  0.00269  0.00223  0.00201  0.00174  0.00194   0.00099

 F7_4        0.20131  0.52642  0.49571    1.00000    0.03597  0.06118  0.02418 -0.01606  0.00170 -0.01707   0.03865
   0.00418   0.00028  0.00017  0.00012    0.00000    0.00162  0.00200  0.00140  0.00133  0.00117  0.00145   0.00070

 F8_4        0.06163  0.48842  0.55753    1.00000    0.02035  0.06762  0.04306 -0.02212  0.00107 -0.02142   0.04079
   0.00409   0.00026  0.00017  0.00013    0.00000    0.00138  0.00213  0.00173  0.00155  0.00120  0.00138   0.00074

 F9_4        0.24819  0.42903  0.56254    1.00000    0.04082  0.04086  0.04753 -0.02277 -0.00121 -0.01223   0.04034
   0.00428   0.00029  0.00016  0.00014    0.00000    0.00171  0.00168  0.00182  0.00142  0.00138  0.00135   0.00070

 O1_5        0.54977  0.60138  0.54329    1.00000    0.02136  0.02549  0.02036 -0.00746 -0.00257 -0.00864   0.02170
   0.00412   0.00028  0.00015  0.00013    0.00000    0.00152  0.00158  0.00148  0.00123  0.00117  0.00124   0.00063

 C1_5        0.60141  0.64861  0.56158    1.00000    0.02215  0.02541  0.02485 -0.00987 -0.00236 -0.00923   0.02299
   0.00585   0.00038  0.00021  0.00018    0.00000    0.00209  0.00219  0.00211  0.00170  0.00162  0.00169   0.00087

 C2_5        0.73913  0.61866  0.58859    1.00000    0.02580  0.03022  0.04392 -0.01280 -0.00873 -0.01171   0.03207
   0.00637   0.00043  0.00024  0.00022    0.00000    0.00233  0.00247  0.00267  0.00202  0.00196  0.00190   0.00104

 F1_5        0.73564  0.57820  0.64387    1.00000    0.05277  0.03832  0.04080 -0.00586 -0.02449 -0.01119   0.04473
   0.00424   0.00032  0.00016  0.00013    0.00000    0.00196  0.00171  0.00169  0.00135  0.00145  0.00146   0.00079

 F2_5        0.80398  0.66811  0.59058    1.00000    0.02720  0.03749  0.06433 -0.02217 -0.00731 -0.01326   0.04053
   0.00405   0.00027  0.00015  0.00015    0.00000    0.00151  0.00164  0.00208  0.00149  0.00138  0.00126   0.00073

 F3_5        0.80152  0.58184  0.55697    1.00000    0.02038  0.04290  0.06058 -0.02714 -0.00567 -0.00191   0.03909
   0.00418   0.00026  0.00016  0.00014    0.00000    0.00139  0.00173  0.00198  0.00151  0.00128  0.00122   0.00071

 C3_5        0.60560  0.71169  0.50658    1.00000    0.03131  0.02905  0.03398 -0.00770 -0.00124 -0.00875   0.03135
   0.00687   0.00044  0.00023  0.00021    0.00000    0.00244  0.00240  0.00250  0.00192  0.00186  0.00196   0.00101

 F4_5        0.49635  0.72815  0.47392    1.00000    0.04220  0.02851  0.04121 -0.00457 -0.01557 -0.00195   0.03894
   0.00428   0.00029  0.00014  0.00013    0.00000    0.00169  0.00151  0.00170  0.00127  0.00133  0.00127   0.00070

 F5_5        0.69792  0.69812  0.47139    1.00000    0.04616  0.04284  0.03824 -0.00819  0.01761 -0.01573   0.04228
   0.00499   0.00030  0.00016  0.00013    0.00000    0.00182  0.00177  0.00170  0.00138  0.00138  0.00144   0.00074

 F6_5        0.62336  0.76712  0.52175    1.00000    0.04733  0.02640  0.05320 -0.00989 -0.00427 -0.01220   0.04198
   0.00445   0.00031  0.00014  0.00014    0.00000    0.00186  0.00149  0.00194  0.00135  0.00147  0.00133   0.00074

 C4_5        0.51874  0.67209  0.60853    1.00000    0.03637  0.04117  0.03979 -0.02168  0.00197 -0.01620   0.03589
   0.00680   0.00047  0.00026  0.00022    0.00000    0.00264  0.00280  0.00274  0.00217  0.00206  0.00214   0.00110

 F7_5        0.41187  0.71454  0.58362    1.00000    0.02721  0.05233  0.06938 -0.03363  0.00800 -0.00438   0.04653
   0.00481   0.00028  0.00017  0.00016    0.00000    0.00156  0.00196  0.00226  0.00171  0.00144  0.00138   0.00079

 F8_5        0.57957  0.70409  0.63913    1.00000    0.05160  0.05701  0.04588 -0.03598  0.00753 -0.02159   0.04558
   0.00425   0.00031  0.00017  0.00014    0.00000    0.00196  0.00204  0.00185  0.00161  0.00148  0.00162   0.00080

 F9_5        0.48445  0.61742  0.64817    1.00000    0.05265  0.05620  0.03711 -0.02188  0.01829 -0.02719   0.04485
   0.00471   0.00032  0.00017  0.00013    0.00000    0.00198  0.00198  0.00169  0.00147  0.00144  0.00161   0.00078

 O1_6        0.62600  0.46400  0.61244    1.00000    0.02129  0.02502  0.01724 -0.00435 -0.00102 -0.00497   0.02145
   0.00433   0.00028  0.00015  0.00012    0.00000    0.00151  0.00156  0.00143  0.00118  0.00114  0.00122   0.00062

 C1_6        0.65926  0.40536  0.65812    1.00000    0.02341  0.02401  0.01936 -0.00581  0.00019 -0.00510   0.02224
   0.00600   0.00039  0.00021  0.00018    0.00000    0.00210  0.00213  0.00199  0.00161  0.00158  0.00170   0.00086

 C2_6        0.79869  0.40303  0.67947    1.00000    0.02344  0.02966  0.02537 -0.00582 -0.00334 -0.00041   0.02710
   0.00658   0.00041  0.00023  0.00019    0.00000    0.00219  0.00234  0.00223  0.00179  0.00169  0.00181   0.00094

 F1_6        0.80404  0.44341  0.71362    1.00000    0.03598  0.04384  0.03758 -0.01778 -0.01372 -0.00586   0.03794
   0.00395   0.00028  0.00015  0.00013    0.00000    0.00162  0.00172  0.00161  0.00135  0.00127  0.00133   0.00069

 F2_6        0.85305  0.33907  0.71111    1.00000    0.03409  0.03594  0.03983 -0.00322 -0.00936  0.00590   0.03965
   0.00470   0.00028  0.00015  0.00013    0.00000    0.00161  0.00159  0.00169  0.00130  0.00129  0.00127   0.00071

 F3_6        0.87055  0.42301  0.63383    1.00000    0.02095  0.04662  0.03789 -0.00611  0.00173 -0.00479   0.03660
   0.00452   0.00025  0.00016  0.00013    0.00000    0.00138  0.00176  0.00159  0.00133  0.00114  0.00123   0.00067

 C3_6        0.65281  0.34217  0.63620    1.00000    0.03838  0.03091  0.02656 -0.00938  0.00334 -0.01168   0.03107
   0.00679   0.00046  0.00023  0.00020    0.00000    0.00261  0.00240  0.00235  0.00187  0.00186  0.00206   0.00101

 F4_6        0.54566  0.35236  0.60334    1.00000    0.05272  0.05034  0.04131 -0.02150 -0.00711 -0.02322   0.04469
   0.00411   0.00031  0.00017  0.00014    0.00000    0.00193  0.00192  0.00175  0.00148  0.00143  0.00156   0.00078

 F5_6        0.74921  0.33284  0.60143    1.00000    0.05792  0.03762  0.03483 -0.01879  0.01514 -0.01029   0.04147
   0.00479   0.00031  0.00016  0.00013    0.00000    0.00198  0.00168  0.00162  0.00134  0.00141  0.00146   0.00073

 F6_6        0.65714  0.28431  0.67964    1.00000    0.05749  0.02562  0.04315 -0.00669  0.00837 -0.01318   0.04212
   0.00486   0.00032  0.00014  0.00014    0.00000    0.00202  0.00148  0.00176  0.00127  0.00146  0.00138   0.00074

 C4_6        0.57132  0.40426  0.71118    1.00000    0.02975  0.03155  0.02130 -0.00343 -0.00142 -0.00414   0.02857
   0.00679   0.00043  0.00023  0.00019    0.00000    0.00236  0.00240  0.00212  0.00180  0.00174  0.00190   0.00096

 F7_6        0.46173  0.38494  0.70130    1.00000    0.02921  0.04274  0.03367 -0.00202  0.00471 -0.01175   0.03653
   0.00444   0.00026  0.00015  0.00013    0.00000    0.00149  0.00169  0.00156  0.00129  0.00118  0.00127   0.00067

 F8_6        0.62469  0.36033  0.76196    1.00000    0.04396  0.04307  0.01718 -0.00014 -0.00052  0.00036   0.03748
   0.00463   0.00029  0.00015  0.00011    0.00000    0.00173  0.00170  0.00131  0.00118  0.00116  0.00136   0.00069

 F9_6        0.54412  0.46608  0.71847    1.00000    0.03680  0.03839  0.02761 -0.01336  0.00434  0.00022   0.03424
   0.00435   0.00027  0.00015  0.00012    0.00000    0.00160  0.00158  0.00146  0.00122  0.00119  0.00126   0.00064

 O1_7        0.33714  1.04096  0.89888    1.00000    0.01026  0.03617  0.02437 -0.00259 -0.00011 -0.00552   0.02476
   0.00457   0.00026  0.00016  0.00013    0.00000    0.00136  0.00180  0.00159  0.00134  0.00114  0.00124   0.00067

 C1_7        0.21179  1.03553  0.90258    1.00000    0.01027  0.03158  0.02232 -0.00645 -0.00239 -0.00632   0.02137
   0.00579   0.00036  0.00021  0.00017    0.00000    0.00181  0.00223  0.00202  0.00170  0.00151  0.00161   0.00085

 C2_7        0.16240  1.03075  0.84241    1.00000    0.01914  0.03676  0.02864 -0.01185 -0.00249 -0.00641   0.02749
   0.00634   0.00040  0.00024  0.00019    0.00000    0.00207  0.00249  0.00228  0.00191  0.00172  0.00183   0.00095

 F1_7        0.20517  0.96968  0.83537    1.00000    0.04063  0.04132  0.04258 -0.02371 -0.00138 -0.00432   0.03935
   0.00431   0.00029  0.00015  0.00014    0.00000    0.00171  0.00167  0.00173  0.00139  0.00134  0.00134   0.00070

 F2_7        0.03597  1.04234  0.83647    1.00000    0.01791  0.05582  0.03339 -0.01668 -0.00675 -0.00854   0.03465
   0.00390   0.00024  0.00016  0.00012    0.00000    0.00129  0.00186  0.00152  0.00135  0.00109  0.00122   0.00066

 F3_7        0.20377  1.07747  0.79717    1.00000    0.02597  0.04839  0.01884 -0.00940 -0.00047 -0.00754   0.03101
   0.00396   0.00025  0.00015  0.00011    0.00000    0.00139  0.00169  0.00127  0.00117  0.00103  0.00122   0.00061

 C3_7        0.13778  1.10042  0.91579    1.00000    0.02207  0.03308  0.02001 -0.00888  0.00125 -0.00536   0.02474
   0.00632   0.00040  0.00023  0.00018    0.00000    0.00211  0.00235  0.00206  0.00173  0.00163  0.00179   0.00090

 F4_7        0.19995  1.11679  0.95699    1.00000    0.03808  0.04442  0.02493 -0.01671 -0.00314 -0.01169   0.03385
   0.00384   0.00027  0.00015  0.00012    0.00000    0.00160  0.00170  0.00138  0.00124  0.00116  0.00131   0.00064

 F5_7        0.12570  1.15499  0.86654    1.00000    0.03533  0.03030  0.02660 -0.00504 -0.00237 -0.00124   0.03194
   0.00421   0.00027  0.00014  0.00012    0.00000    0.00155  0.00145  0.00139  0.00113  0.00114  0.00119   0.00061

 F6_7        0.02192  1.09258  0.93392    1.00000    0.01999  0.04968  0.03750 -0.01439  0.00888 -0.00348   0.03566
   0.00446   0.00025  0.00016  0.00013    0.00000    0.00134  0.00179  0.00160  0.00136  0.00115  0.00123   0.00066

 C4_7        0.19272  0.97026  0.95287    1.00000    0.01905  0.03303  0.02864 -0.00496  0.00206 -0.00652   0.02754
   0.00670   0.00040  0.00023  0.00019    0.00000    0.00210  0.00240  0.00226  0.00189  0.00174  0.00178   0.00095

 F7_7        0.20236  0.98077  1.00573    1.00000    0.03230  0.04634  0.02262 -0.00008 -0.00028 -0.01239   0.03524
   0.00424   0.00027  0.00015  0.00012    0.00000    0.00153  0.00174  0.00136  0.00121  0.00112  0.00131   0.00066

 F8_7        0.07961  0.95242  0.94767    1.00000    0.02742  0.04817  0.04336 -0.00523  0.00189 -0.02309   0.03948
   0.00429   0.00026  0.00016  0.00013    0.00000    0.00148  0.00181  0.00173  0.00140  0.00125  0.00133   0.00072

 F9_7        0.28220  0.91790  0.95193    1.00000    0.03812  0.03223  0.04466  0.00112  0.00651  0.00038   0.04173
   0.00516   0.00029  0.00015  0.00014    0.00000    0.00169  0.00157  0.00181  0.00134  0.00137  0.00129   0.00073

 O1_8        0.57688  1.08177  0.89480    1.00000    0.01847  0.02433  0.01940 -0.00286 -0.00207 -0.00728   0.02106
   0.00424   0.00027  0.00015  0.00013    0.00000    0.00147  0.00152  0.00146  0.00119  0.00114  0.00120   0.00062

 C1_8        0.57655  1.14901  0.86626    1.00000    0.01566  0.02285  0.01770 -0.00405 -0.00263 -0.00595   0.01882
   0.00562   0.00036  0.00020  0.00017    0.00000    0.00188  0.00201  0.00190  0.00157  0.00147  0.00157   0.00081

 C2_8        0.48963  1.19600  0.89637    1.00000    0.02163  0.03147  0.02517 -0.00820  0.00321 -0.00604   0.02593
   0.00650   0.00040  0.00023  0.00019    0.00000    0.00210  0.00231  0.00214  0.00184  0.00169  0.00179   0.00092

 F1_8        0.36635  1.20001  0.88055    1.00000    0.01555  0.03712  0.04209 -0.01195  0.00211 -0.00367   0.03160
   0.00411   0.00023  0.00014  0.00013    0.00000    0.00124  0.00155  0.00163  0.00127  0.00110  0.00110   0.00061

 F2_8        0.51435  1.25974  0.88121    1.00000    0.03024  0.02905  0.05125 -0.01975  0.00291 -0.00707   0.03490
   0.00415   0.00027  0.00014  0.00014    0.00000    0.00150  0.00144  0.00180  0.00130  0.00128  0.00118   0.00065

 F3_8        0.50111  1.17069  0.95485    1.00000    0.03797  0.05607  0.02233 -0.01544  0.00516  0.00017   0.03888
   0.00459   0.00028  0.00016  0.00012    0.00000    0.00165  0.00193  0.00137  0.00131  0.00117  0.00141   0.00070

 C3_8        0.71570  1.16268  0.86863    1.00000    0.01993  0.02795  0.02554 -0.00485 -0.00104 -0.00973   0.02445
   0.00619   0.00039  0.00022  0.00019    0.00000    0.00207  0.00223  0.00216  0.00175  0.00165  0.00171   0.00090

 F4_8        0.79673  1.11253  0.85811    1.00000    0.01705  0.03650  0.03837 -0.01020  0.00419 -0.00494   0.03077
   0.00412   0.00024  0.00014  0.00012    0.00000    0.00127  0.00152  0.00157  0.00124  0.00109  0.00110   0.00060

 F5_8        0.74593  1.16591  0.92286    1.00000    0.02493  0.03489  0.02980 -0.00767 -0.00879 -0.01322   0.02930
   0.00358   0.00025  0.00014  0.00011    0.00000    0.00136  0.00150  0.00138  0.00115  0.00108  0.00115   0.00060

 F6_8        0.73131  1.22164  0.82945    1.00000    0.02341  0.03468  0.03191  0.00049  0.00029 -0.01429   0.03111
   0.00404   0.00025  0.00014  0.00012    0.00000    0.00137  0.00149  0.00145  0.00116  0.00110  0.00115   0.00062

 C4_8        0.53051  1.16656  0.79993    1.00000    0.02239  0.03035  0.01920 -0.00455 -0.00108 -0.01046   0.02386
   0.00606   0.00039  0.00022  0.00018    0.00000    0.00213  0.00227  0.00203  0.00172  0.00160  0.00176   0.00090

 F7_8        0.62002  1.14144  0.76875    1.00000    0.03654  0.04756  0.02004 -0.01196  0.00580 -0.00812   0.03416
   0.00424   0.00027  0.00015  0.00011    0.00000    0.00158  0.00174  0.00133  0.00122  0.00112  0.00131   0.00064

 F8_8        0.49855  1.23381  0.77391    1.00000    0.03070  0.03062  0.02268  0.00101 -0.00428 -0.00905   0.02943
   0.00393   0.00025  0.00013  0.00011    0.00000    0.00145  0.00141  0.00131  0.00109  0.00108  0.00114   0.00059

 F9_8        0.42823  1.13825  0.79565    1.00000    0.02727  0.03837  0.02275 -0.00402 -0.00750 -0.01568   0.02933
   0.00361   0.00025  0.00014  0.00011    0.00000    0.00138  0.00154  0.00131  0.00113  0.00106  0.00118   0.00060

 O1_9        0.56985  0.93944  0.91671    1.00000    0.02022  0.02192  0.02352 -0.00830  0.00095 -0.00005   0.02194
   0.00444   0.00028  0.00015  0.00013    0.00000    0.00151  0.00153  0.00154  0.00123  0.00118  0.00121   0.00062

 C1_9        0.62720  0.90781  0.87840    1.00000    0.02218  0.03160  0.01761 -0.01237 -0.00223  0.00013   0.02322
   0.00600   0.00039  0.00022  0.00017    0.00000    0.00210  0.00226  0.00198  0.00171  0.00157  0.00173   0.00088

 C2_9        0.76326  0.92591  0.86686    1.00000    0.02375  0.06459  0.03489 -0.02555  0.00411 -0.00699   0.03878
   0.00730   0.00044  0.00029  0.00022    0.00000    0.00238  0.00334  0.00267  0.00241  0.00195  0.00228   0.00117

 F1_9        0.75817  0.98820  0.82871    1.00000    0.04897  0.06342  0.04833 -0.02653  0.02224 -0.02753   0.04935
   0.00501   0.00032  0.00018  0.00015    0.00000    0.00198  0.00213  0.00193  0.00164  0.00154  0.00168   0.00083

 F2_9        0.83676  0.88107  0.84417    1.00000    0.02718  0.08991  0.05253 -0.03688  0.00479  0.00689   0.05504
   0.00538   0.00029  0.00021  0.00016    0.00000    0.00164  0.00269  0.00208  0.00194  0.00144  0.00165   0.00093

 F3_9        0.82046  0.92448  0.91695    1.00000    0.02443  0.11709  0.04393 -0.04359 -0.00278 -0.01468   0.05720
   0.00462   0.00029  0.00022  0.00015    0.00000    0.00158  0.00325  0.00186  0.00201  0.00134  0.00179   0.00102

 C3_9        0.63464  0.82971  0.90619    1.00000    0.05540  0.03498  0.02597 -0.01384 -0.00022 -0.00005   0.03860
   0.00765   0.00052  0.00025  0.00021    0.00000    0.00316  0.00263  0.00246  0.00205  0.00213  0.00233   0.00115

 F4_9        0.52429  0.81471  0.92777    1.00000    0.07579  0.03592  0.03859 -0.01275  0.01217 -0.02168   0.04831
   0.00503   0.00035  0.00016  0.00014    0.00000    0.00235  0.00172  0.00177  0.00140  0.00161  0.00165   0.00082

 F5_9        0.72278  0.80617  0.95051    1.00000    0.07246  0.04689  0.03603 -0.00701 -0.01561  0.02601   0.05701
   0.00581   0.00036  0.00018  0.00014    0.00000    0.00244  0.00199  0.00179  0.00151  0.00164  0.00176   0.00098

 F6_9        0.66420  0.79553  0.86577    1.00000    0.09385  0.03579  0.04098 -0.02194  0.00788  0.00485   0.05640
   0.00575   0.00040  0.00017  0.00015    0.00000    0.00288  0.00179  0.00187  0.00149  0.00180  0.00179   0.00097

 C4_9        0.54993  0.93168  0.81750    1.00000    0.03138  0.03981  0.02420 -0.01495 -0.00483 -0.00309   0.03092
   0.00658   0.00044  0.00025  0.00019    0.00000    0.00246  0.00259  0.00223  0.00198  0.00181  0.00199   0.00101

 F7_9        0.44896  0.89968  0.82202    1.00000    0.03152  0.06623  0.04631 -0.02711 -0.00704 -0.01319   0.04515
   0.00423   0.00028  0.00018  0.00014    0.00000    0.00161  0.00217  0.00184  0.00163  0.00134  0.00149   0.00078

 F8_9        0.61638  0.91810  0.77377    1.00000    0.04262  0.05100  0.02231 -0.01803  0.00041 -0.00331   0.03760
   0.00433   0.00029  0.00016  0.00012    0.00000    0.00171  0.00184  0.00139  0.00129  0.00119  0.00140   0.00068

 F9_9        0.50726  0.99850  0.80274    1.00000    0.04406  0.03525  0.02822 -0.00807 -0.01040  0.00636   0.03758
   0.00444   0.00029  0.00015  0.00012    0.00000    0.00175  0.00156  0.00148  0.00122  0.00126  0.00130   0.00068

 O1_10       0.88077  0.51698  0.88829    1.00000    0.02100  0.02654  0.01865 -0.00627 -0.00379 -0.00194   0.02237
   0.00436   0.00028  0.00015  0.00013    0.00000    0.00152  0.00160  0.00147  0.00121  0.00116  0.00125   0.00063

 C1_10       0.85241  0.57051  0.83837    1.00000    0.02691  0.03031  0.01969 -0.00691 -0.00318 -0.00493   0.02571
   0.00621   0.00040  0.00022  0.00018    0.00000    0.00223  0.00231  0.00204  0.00171  0.00165  0.00183   0.00091

 C2_10       0.94781  0.56425  0.78949    1.00000    0.03254  0.04952  0.02056 -0.00681 -0.00199 -0.00643   0.03500
   0.00728   0.00046  0.00027  0.00020    0.00000    0.00253  0.00291  0.00219  0.00205  0.00183  0.00219   0.00108

 F1_10       1.05625  0.58377  0.80029    1.00000    0.03228  0.07630  0.03578  0.00137  0.00201 -0.02041   0.05064
   0.00509   0.00029  0.00019  0.00014    0.00000    0.00167  0.00241  0.00172  0.00162  0.00132  0.00161   0.00088

 F2_10       0.90203  0.60409  0.73584    1.00000    0.04671  0.06710  0.01805 -0.00421 -0.00069  0.00077   0.04691
   0.00517   0.00031  0.00018  0.00012    0.00000    0.00189  0.00220  0.00138  0.00137  0.00125  0.00160   0.00081

 F3_10       0.97552  0.50032  0.78806    1.00000    0.04059  0.05681  0.03069 -0.01921  0.00223  0.00728   0.04311
   0.00489   0.00030  0.00017  0.00013    0.00000    0.00176  0.00195  0.00159  0.00144  0.00130  0.00147   0.00075

 C3_10       0.71616  0.56935  0.81498    1.00000    0.02736  0.04150  0.02759 -0.01007 -0.00761  0.00563   0.03346
   0.00711   0.00044  0.00025  0.00020    0.00000    0.00238  0.00274  0.00240  0.00200  0.00181  0.00204   0.00106

 F4_10       0.63819  0.55486  0.85955    1.00000    0.02238  0.06282  0.03821 -0.01177 -0.00125  0.00298   0.04295
   0.00487   0.00027  0.00017  0.00013    0.00000    0.00146  0.00211  0.00167  0.00149  0.00120  0.00137   0.00075

 F5_10       0.71763  0.52231  0.78706    1.00000    0.03878  0.06147  0.03960 -0.02491 -0.01329 -0.00708   0.04457
[...]

 F2_8 -          Distance        Angles
 C2_8      1.3281 (0.0050) 
                 F2_8           

 F3_8 -          Distance        Angles
 C2_8      1.3216 (0.0049) 
                 F3_8           

 C3_8 -          Distance        Angles
 F4_8      1.3183 (0.0051) 
 F6_8      1.3307 (0.0048)  108.53 (0.35)
 F5_8      1.3407 (0.0048)  107.66 (0.34) 107.82 (0.34)
 C1_8      1.5578 (0.0051)  110.83 (0.33) 111.99 (0.33) 109.87 (0.33)
                 C3_8            F4_8          F6_8          F5_8         

 F4_8 -          Distance        Angles
 C3_8      1.3183 (0.0051) 
                 F4_8           

 F5_8 -          Distance        Angles
 C3_8      1.3407 (0.0048) 
                 F5_8           

 F6_8 -          Distance        Angles
 C3_8      1.3307 (0.0048) 
                 F6_8           

 C4_8 -          Distance        Angles
 F8_8      1.3310 (0.0049) 
 F7_8      1.3323 (0.0050)  108.32 (0.33)
 F9_8      1.3339 (0.0046)  107.12 (0.33) 107.04 (0.34)
 C1_8      1.5591 (0.0051)  112.86 (0.34) 110.92 (0.34) 110.34 (0.32)
                 C4_8            F8_8          F7_8          F9_8         

 F7_8 -          Distance        Angles
 C4_8      1.3323 (0.0050) 
                 F7_8           

 F8_8 -          Distance        Angles
 C4_8      1.3310 (0.0049) 
                 F8_8           

 F9_8 -          Distance        Angles
 C4_8      1.3339 (0.0046) 
                 F9_8           

 O1_9 -          Distance        Angles
 C1_9      1.3502 (0.0049) 
 Al3       1.7173 (0.0032)  143.35 (0.28)
                 O1_9            C1_9         

 C1_9 -          Distance        Angles
 O1_9      1.3502 (0.0048) 
 C3_9      1.5417 (0.0061)  107.94 (0.34)
 C2_9      1.5587 (0.0059)  110.06 (0.34) 110.31 (0.38)
 C4_9      1.5632 (0.0053)  110.70 (0.34) 109.77 (0.35) 108.06 (0.35)
                 C1_9            O1_9          C3_9          C2_9         

 C2_9 -          Distance        Angles
 F3_9      1.3199 (0.0053) 
 F1_9      1.3299 (0.0061)  108.54 (0.45)
 F2_9      1.3438 (0.0057)  107.38 (0.41) 107.63 (0.41)
 C1_9      1.5587 (0.0059)  110.41 (0.38) 110.89 (0.39) 111.85 (0.41)
                 C2_9            F3_9          F1_9          F2_9         

 F1_9 -          Distance        Angles
 C2_9      1.3299 (0.0061) 
                 F1_9           

 F2_9 -          Distance        Angles
 C2_9      1.3438 (0.0057) 
                 F2_9           

 F3_9 -          Distance        Angles
 C2_9      1.3199 (0.0054) 
                 F3_9           

 C3_9 -          Distance        Angles
 F4_9      1.3265 (0.0060) 
 F5_9      1.3314 (0.0057)  108.05 (0.42)
 F6_9      1.3484 (0.0054)  107.34 (0.42) 108.42 (0.42)
 C1_9      1.5417 (0.0061)  111.21 (0.40) 110.29 (0.40) 111.41 (0.38)
                 C3_9            F4_9          F5_9          F6_9         

 F4_9 -          Distance        Angles
 C3_9      1.3265 (0.0061) 
                 F4_9           

 F5_9 -          Distance        Angles
 C3_9      1.3314 (0.0057) 
                 F5_9           

 F6_9 -          Distance        Angles
 C3_9      1.3484 (0.0054) 
                 F6_9           

 C4_9 -          Distance        Angles
 F8_9      1.3189 (0.0052) 
 F9_9      1.3223 (0.0053)  108.59 (0.38)
 F7_9      1.3388 (0.0054)  107.18 (0.36) 107.66 (0.39)
 C1_9      1.5632 (0.0053)  113.35 (0.37) 110.16 (0.35) 109.70 (0.37)
                 C4_9            F8_9          F9_9          F7_9         

 F7_9 -          Distance        Angles
 C4_9      1.3388 (0.0054) 
                 F7_9           

 F8_9 -          Distance        Angles
 C4_9      1.3189 (0.0052) 
                 F8_9           

 F9_9 -          Distance        Angles
 C4_9      1.3223 (0.0053) 
                 F9_9           

 O1_10 -         Distance        Angles
 C1_10     1.3540 (0.0050) 
 Al4       1.7105 (0.0031)  148.30 (0.29)
                 O1_10           C1_10        

 C1_10 -         Distance        Angles
 O1_10     1.3540 (0.0050) 
 C4_10     1.5469 (0.0062)  110.13 (0.34)
 C2_10     1.5531 (0.0060)  111.25 (0.36) 110.23 (0.38)
 C3_10     1.5611 (0.0058)  107.64 (0.35) 108.69 (0.38) 108.81 (0.34)
                 C1_10           O1_10         C4_10         C2_10        

 C2_10 -         Distance        Angles
 F3_10     1.3145 (0.0058) 
 F1_10     1.3318 (0.0055)  107.46 (0.41)
 F2_10     1.3347 (0.0052)  108.89 (0.39) 107.18 (0.39)
 C1_10     1.5531 (0.0060)  110.90 (0.39) 110.53 (0.38) 111.71 (0.39)
                 C2_10           F3_10         F1_10         F2_10        

 F1_10 -         Distance        Angles
 C2_10     1.3318 (0.0055) 
                 F1_10          

 F2_10 -         Distance        Angles
 C2_10     1.3347 (0.0052) 
                 F2_10          

 F3_10 -         Distance        Angles
 C2_10     1.3145 (0.0058) 
                 F3_10          

 C3_10 -         Distance        Angles
 F5_10     1.3187 (0.0055) 
 F4_10     1.3319 (0.0055)  107.25 (0.41)
 F6_10     1.3429 (0.0054)  107.23 (0.38) 107.59 (0.38)
 C1_10     1.5611 (0.0058)  111.41 (0.37) 111.04 (0.35) 112.07 (0.40)
                 C3_10           F5_10         F4_10         F6_10        

 F4_10 -         Distance        Angles
 C3_10     1.3319 (0.0055) 
                 F4_10          

 F5_10 -         Distance        Angles
 C3_10     1.3187 (0.0055) 
                 F5_10          

 F6_10 -         Distance        Angles
 C3_10     1.3429 (0.0054) 
                 F6_10          

 C4_10 -         Distance        Angles
 F8_10     1.3221 (0.0055) 
 F9_10     1.3331 (0.0060)  108.23 (0.44)
 F7_10     1.3390 (0.0063)  108.11 (0.45) 107.59 (0.43)
 C1_10     1.5469 (0.0062)  113.04 (0.40) 109.17 (0.42) 110.53 (0.41)
                 C4_10           F8_10         F9_10         F7_10        

 F7_10 -         Distance        Angles
 C4_10     1.3390 (0.0064) 
                 F7_10          

 F8_10 -         Distance        Angles
 C4_10     1.3221 (0.0055) 
                 F8_10          

 F9_10 -         Distance        Angles
 C4_10     1.3331 (0.0060) 
                 F9_10          

 O1_11 -         Distance        Angles
 C1_11     1.3637 (0.0047) 
 Al4       1.7142 (0.0031)  143.45 (0.29)
                 O1_11           C1_11        

 C1_11 -         Distance        Angles
 O1_11     1.3637 (0.0047) 
 C2_11     1.5455 (0.0061)  111.01 (0.34)
 C3_11     1.5522 (0.0059)  110.67 (0.35) 109.43 (0.37)
 C4_11     1.5539 (0.0062)  107.56 (0.35) 108.80 (0.38) 109.32 (0.37)
                 C1_11           O1_11         C2_11         C3_11        

 C2_11 -         Distance        Angles
 F2_11     1.3352 (0.0051) 
 F1_11     1.3508 (0.0057)  108.91 (0.39)
 F3_11     1.3515 (0.0057)  106.33 (0.40) 107.98 (0.38)
 C1_11     1.5455 (0.0061)  113.08 (0.37) 110.50 (0.39) 109.82 (0.38)
                 C2_11           F2_11         F1_11         F3_11        

 F1_11 -         Distance        Angles
 C2_11     1.3508 (0.0057) 
                 F1_11          

 F2_11 -         Distance        Angles
 C2_11     1.3352 (0.0051) 
                 F2_11          

 F3_11 -         Distance        Angles
 C2_11     1.3515 (0.0057) 
                 F3_11          

 C3_11 -         Distance        Angles
 F4_11     1.3190 (0.0056) 
 F6_11     1.3329 (0.0053)  107.90 (0.40)
 F5_11     1.3499 (0.0060)  108.27 (0.42) 108.38 (0.40)
 C1_11     1.5522 (0.0059)  111.03 (0.38) 111.56 (0.39) 109.60 (0.39)
                 C3_11           F4_11         F6_11         F5_11        

 F4_11 -         Distance        Angles
 C3_11     1.3190 (0.0056) 
                 F4_11          

 F5_11 -         Distance        Angles
 C3_11     1.3499 (0.0060) 
                 F5_11          

 F6_11 -         Distance        Angles
 C3_11     1.3329 (0.0053) 
                 F6_11          

 C4_11 -         Distance        Angles
 F9_11     1.3208 (0.0057) 
 F8_11     1.3299 (0.0056)  107.40 (0.42)
 F7_11     1.3540 (0.0059)  107.95 (0.44) 109.04 (0.40)
 C1_11     1.5539 (0.0062)  111.20 (0.38) 111.87 (0.42) 109.28 (0.40)
                 C4_11           F9_11         F8_11         F7_11        

 F7_11 -         Distance        Angles
 C4_11     1.3540 (0.0059) 
                 F7_11          

 F8_11 -         Distance        Angles
 C4_11     1.3299 (0.0056) 
                 F8_11          

 F9_11 -         Distance        Angles
 C4_11     1.3208 (0.0057) 
                 F9_11          

 O1_12 -         Distance        Angles
 C1_12     1.3664 (0.0047) 
 Al4       1.7034 (0.0031)  150.27 (0.28)
                 O1_12           C1_12        

 C1_12 -         Distance        Angles
 O1_12     1.3664 (0.0047) 
 C2_12     1.5492 (0.0056)  108.95 (0.33)
 C4_12     1.5530 (0.0053)  108.17 (0.33) 110.51 (0.34)
 C3_12     1.5561 (0.0058)  110.17 (0.33) 108.90 (0.35) 110.13 (0.33)
                 C1_12           O1_12         C2_12         C4_12        

 C2_12 -         Distance        Angles
 F3_12     1.3218 (0.0051) 
 F1_12     1.3301 (0.0055)  107.35 (0.39)
 F2_12     1.3307 (0.0053)  108.63 (0.39) 107.63 (0.37)
 C1_12     1.5492 (0.0056)  110.70 (0.35) 110.63 (0.38) 111.74 (0.37)
                 C2_12           F3_12         F1_12         F2_12        

 F1_12 -         Distance        Angles
 C2_12     1.3301 (0.0055) 
                 F1_12          

 F2_12 -         Distance        Angles
 C2_12     1.3307 (0.0053) 
                 F2_12          

 F3_12 -         Distance        Angles
 C2_12     1.3218 (0.0051) 
                 F3_12          

 C3_12 -         Distance        Angles
 F4_12     1.3224 (0.0050) 
 F5_12     1.3314 (0.0050)  107.72 (0.35)
 F6_12     1.3338 (0.0048)  107.88 (0.36) 107.98 (0.35)
 C1_12     1.5561 (0.0058)  110.38 (0.35) 110.44 (0.35) 112.28 (0.34)
                 C3_12           F4_12         F5_12         F6_12        

 F4_12 -         Distance        Angles
 C3_12     1.3224 (0.0050) 
                 F4_12          

 F5_12 -         Distance        Angles
 C3_12     1.3314 (0.0050) 
                 F5_12          

 F6_12 -         Distance        Angles
 C3_12     1.3338 (0.0048) 
                 F6_12          

 C4_12 -         Distance        Angles
 F7_12     1.3278 (0.0051) 
 F9_12     1.3285 (0.0052)  108.07 (0.36)
 F8_12     1.3403 (0.0048)  108.03 (0.35) 107.67 (0.36)
 C1_12     1.5530 (0.0053)  110.87 (0.35) 110.47 (0.34) 111.58 (0.34)
                 C4_12           F7_12         F9_12         F8_12        

 F7_12 -         Distance        Angles
 C4_12     1.3278 (0.0051) 
                 F7_12          

 F8_12 -         Distance        Angles
 C4_12     1.3403 (0.0048) 
                 F8_12          

 F9_12 -         Distance        Angles
 C4_12     1.3285 (0.0052) 
                 F9_12          

 O1_13^b -       Distance        Angles
 C1_13^b   1.3655 (0.0140) 
 Al1       1.6782 (0.0330)  155.29 (3.31)
                 O1_13^b         C1_13^b      

 C1_13^b -       Distance        Angles
 O1_13^b   1.3655 (0.0140) 
 C2_13^b   1.5460 (0.0126)  109.99 (1.90)
 C3_13^b   1.5477 (0.0128)  109.12 (1.89) 110.44 (1.42)
 C4_13^b   1.5509 (0.0128)  108.15 (1.90) 110.20 (1.36) 108.90 (1.39)
                 C1_13^b         O1_13^b       C2_13^b       C3_13^b      

 C2_13^b -       Distance        Angles
 F2_13^b   1.3310 (0.0136) 
 F3_13^b   1.3330 (0.0136)  108.04 (2.05)
 F1_13^b   1.3340 (0.0135)  106.36 (2.00) 106.50 (1.85)
 C1_13^b   1.5460 (0.0126)  112.65 (1.98) 111.65 (1.84) 111.30 (1.53)
                 C2_13^b         F2_13^b       F3_13^b       F1_13^b      

 F1_13^b -       Distance        Angles
 C2_13^b   1.3340 (0.0135) 
                 F1_13^b        

 F2_13^b -       Distance        Angles
 C2_13^b   1.3310 (0.0136) 
                 F2_13^b        

 F3_13^b -       Distance        Angles
 C2_13^b   1.3330 (0.0136) 
                 F3_13^b        

 C3_13^b -       Distance        Angles
 F5_13^b   1.3269 (0.0135) 
 F4_13^b   1.3307 (0.0135)  108.99 (1.89)
 F6_13^b   1.3341 (0.0137)  108.12 (2.06) 108.05 (2.05)
 C1_13^b   1.5477 (0.0127)  109.75 (1.65) 110.96 (1.65) 110.90 (1.93)
                 C3_13^b         F5_13^b       F4_13^b       F6_13^b      

 F4_13^b -       Distance        Angles
 C3_13^b   1.3307 (0.0135) 
                 F4_13^b        

 F5_13^b -       Distance        Angles
 C3_13^b   1.3269 (0.0135) 
                 F5_13^b        

 F6_13^b -       Distance        Angles
 C3_13^b   1.3341 (0.0137) 
                 F6_13^b        

 C4_13^b -       Distance        Angles
 F8_13^b   1.3266 (0.0137) 
 F7_13^b   1.3274 (0.0134)  106.68 (1.90)
 F9_13^b   1.3296 (0.0135)  108.03 (1.97) 109.97 (1.88)
 C1_13^b   1.5509 (0.0128)  112.80 (1.78) 112.58 (1.64) 106.71 (1.67)
                 C4_13^b         F8_13^b       F7_13^b       F9_13^b      

 F7_13^b -       Distance        Angles
 C4_13^b   1.3274 (0.0133) 
                 F7_13^b        

 F8_13^b -       Distance        Angles
 C4_13^b   1.3266 (0.0137) 
                 F8_13^b        

 F9_13^b -       Distance        Angles
 C4_13^b   1.3296 (0.0136) 
                 F9_13^b        


 FMAP and GRID set by program

 FMAP   2   2  92
 GRID    -1.124  -1  -2     1.124   1   2

 R1 =  0.0873 for  19930 unique reflections after merging for Fourier


 Residue reliability criteria (side-chain)
 Residue  Mean(DD) Min(DD) Max(Peak)  Mean(U)   Max(U) Mean(Anis) Min(Anis) Max(SIMU)  Max(BUMP)  Sum(occ) N(ats)
 Ccf3_1     0.07    -0.02     0.55     0.048     0.064     0.289     0.137     0.061     0.000    12.413    14
 Ccf3_2     0.02    -0.07     0.70     0.045     0.066     0.429     0.237     0.040     0.000    14.000    14
 Ccf3_3     0.02    -0.17     0.64     0.048     0.062     0.394     0.208     0.052     0.000    14.000    14
 Ccf3_4     0.08     0.02     0.46     0.035     0.043     0.363     0.174     0.023     0.000    14.000    14
 Ccf3_5     0.04    -0.05     0.49     0.038     0.047     0.365     0.217     0.030     0.000    14.000    14
 Ccf3_6     0.09    -0.03     0.58     0.034     0.045     0.469     0.278     0.020     0.000    14.000    14
 Ccf3_7     0.09     0.00     0.48     0.032     0.042     0.387     0.215     0.021     0.000    14.000    14
 Ccf3_8     0.08    -0.06     0.57     0.029     0.039     0.409     0.265     0.026     0.000    14.000    14
 Ccf3_9     0.04    -0.07     0.76     0.043     0.057     0.332     0.147     0.052     0.000    14.000    14
 Ccf3_10    0.09    -0.04     0.57     0.044     0.061     0.324     0.164     0.043     0.000    14.000    14
 Ccf3_11    0.03    -0.08     0.58     0.041     0.054     0.325     0.150     0.027     0.000    14.000    14
 Ccf3_12    0.10     0.01     0.53     0.034     0.045     0.376     0.199     0.029     0.000    14.000    14
 Ccf3_13    0.03    -0.08     0.55     0.048     0.075     0.228     0.111     0.044     0.000     1.587    14


 Electron density synthesis with coefficients Fo-Fc

 Highest peak    1.00  at  0.8191  0.7353  0.3512  [  1.02 A from NI1 ]
 Deepest hole   -1.31  at  0.6812  0.2558  0.2302  [  0.79 A from NI2 ]


 Fourier peaks appended to .res file

              x       y       z       sof     U      Peak   Distances to nearest atoms (including eq.)

 Q1    1  -0.1809  0.7353  0.3512   1.00000  0.05    1.00   1.02 NI1^a  1.37 C1^a  1.61 C3^a  2.41 O1^a
 Q2    1   1.4016  0.7530  0.8190   1.00000  0.05    0.91   0.78 NI2  1.64 C8^a  1.87 C6^a  1.90 C5
 Q3    1  -0.1327  0.7018  0.3240   1.00000  0.05    0.88   0.94 NI1^a  1.60 C1^a  1.89 C4^a  2.42 C3^a
 Q4    1   1.3857  0.6921  0.8079   1.00000  0.05    0.83   0.92 NI2  1.50 C7^a  1.55 C8^a  2.44 C5
 Q5    1   1.3333  0.7237  0.8400   1.00000  0.05    0.82   1.06 NI2  1.34 C8^a  1.69 C6^a  2.36 O8^a
 Q6    1  -0.1154  0.7721  0.2708   1.00000  0.05    0.81   0.98 NI1^a  1.31 C2  1.78 C4^a  2.35 O2
 Q7    1  -0.1538  0.7991  0.2942   1.00000  0.05    0.79   0.96 NI1^a  1.59 C2  1.96 C3^a  2.44 C4^a
 Q8    1   0.5188  0.9707  0.9296   1.00000  0.05    0.76   0.90 O1_9  0.92 AL3  1.92 F3^a  2.21 O1_7
 Q9    1   1.3230  0.7649  0.8308   1.00000  0.05    0.75   1.06 C6^a  1.15 NI2  1.92 C8^a  2.10 O6^a
 Q10   1   1.3673  0.7912  0.7820   1.00000  0.05    0.71   1.02 NI2  1.62 C5  1.66 C6^a  2.63 C8^a
 Q11   1   0.9783  1.0236  0.5787   1.00000  0.05    0.70   0.85 O1_2  0.91 AL1  2.05 F1  2.08 O1_13^a
 Q12   1   1.4097  0.7514  0.7570   1.00000  0.05    0.67   1.01 NI2  1.24 C5  1.96 C7^a  2.28 O5
 Q13   1   1.0727  0.8514  0.7089   1.00000  0.05    0.64   1.30 F5_3  1.48 F3_3^a  1.64 C2_3  1.87 F2_3^a
 Q14   1   1.0231  0.9334  0.5910   1.00000  0.05    0.64   0.91 O1_3  0.94 AL1  1.92 O1_1^a  1.99 O1_13^a
 Q15   1   0.6192  0.4024  0.6858   1.00000  0.05    0.58   0.77 C1_6  0.79 C4_6  1.75 F8_6  1.79 F7_6
 Q16   1   0.8172  0.3753  0.8594   1.00000  0.05    0.58   0.95 F5_11  1.94 C3_11  2.01 F3_11  2.15 F2_11
 Q17   1   0.7044  0.8724  0.6378   1.00000  0.05    0.58   1.03 F9_3  1.89 F1_3^a  1.89 C4_3  2.27 F8_3
 Q18   1   0.7572  0.9872  0.6742   1.00000  0.05    0.57   1.13 F1_2  1.80 F1_3^a  2.07 C2_2  2.43 F3_2
 Q19   1   0.4875  1.0643  0.9073   1.00000  0.05    0.57   0.93 AL3  1.08 O1_8  1.77 O1_7  2.11 C1_8
 Q20   1   0.8645  0.5964  0.8475   1.00000  0.05    0.57   0.66 C1_10  0.91 C4_10  1.62 O1_10^a  1.74 F9_10

 Shortest distances between peaks (including symmetry equivalents)

      5   9  0.80      2   9  0.90      6   7  0.94      2  10  1.01      2   5  1.05      1   3  1.14     10  12  1.18
      4   5  1.21      9  10  1.25      2   4  1.39      2  12  1.47      4  12  1.50      1   7  1.65      3   6  1.65
      5  10  1.73      4   9  1.77     11  14  1.78      8  19  1.82      3   7  1.90      4  10  1.93      1   6  1.99
      9  12  2.03      5  12  2.07     13  14  2.80     17  18  2.88


 Time profile in seconds
 -----------------------

      0.01: Read and process instructions
      0.00: Fit rigid groups
      0.02: Interpret restraints etc.
      0.00: Generate connectivity array
      0.00: Analyse DFIX and DANG restraints
      0.01: Analyse SAME, SADI and NCSY restraints
      0.00: Generate CHIV restraints
      0.00: Check if bonds in residues restrained
      0.00: Generate DELU and RIGU restraints
      0.00: Generate SIMU restraints
      0.00: Generate ISOR restraints
      0.00: Analyse electron density
      0.00: Analyse other restraints etc.
      0.44: Read intensity data, sort/merge etc.
      0.00: Set up constraints
      0.01: OSF, H-atoms from difference map
      0.02: Set up l.s. refinement
      0.00: Generate idealized H-atoms
      0.38: Structure factors and derivatives
      7.36: Sum l.s. matrices
      0.00: Generate and apply antibumping restraints
      0.02: Apply other restraints
      0.75: Solve l.s. equations
      0.00: Generate HTAB table
      1.94: Other dependent quantities, CIF, tables
      0.02: Analysis of variance
      0.10: Merge reflections for Fourier and .fcf
      0.01: Fourier summations
      0.03: Peaksearch
      0.00: Analyse peaklist

 ** WARNING: These times are only approximate for multiple threads.
             To get better estimates run with -t1 **

   Please cite: G.M. Sheldrick (2015) "Crystal structure refinement with
   SHELXL", Acta Cryst., C71, 3-8 (Open Access) if SHELXL proves useful.

 +++++++++++++++++++++++++++++++++++++++++++++++++++++++++++++++++++++++++++++
 +  testdata/p-1_ finished at 22:03:50   Total elapsed time:     11.12 secs  +
 +++++++++++++++++++++++++++++++++++++++++++++++++++++++++++++++++++++++++++++
