
 +++++++++++++++++++++++++++++++++++++++++++++++++++++++++++++++++++
 +  SHELXL -  CRYSTAL STRUCTURE REFINEMENT  -   MULTI-CPU VERSION  +
 +  Copyright(C) George M. Sheldrick 1993-2018     Version 2018/3  +
 +  p-1_a                      started at 17:43:32 on 15-Apr-2022  +
 +++++++++++++++++++++++++++++++++++++++++++++++++++++++++++++++++++

 Command line parameters: p-1_a -a50000 -b3000 -c624 -g0 -m0 -t6

 -a sets the approximate maximum number of atoms including hydrogens.
 -b sets the maximum number of full-matrix parameters (not used by CGLS).
 For example -b9000 allows refinement of 1000 anisotropic atoms or 3000
 with BLOC 1. For a 32-bit version, -b times the square root of the
 number of threads should not exceed about 65500. -c sets the reflection
 buffer size. This depends on the CPU cache size but will rarely
 need changing.

 -g sets the number of reflection groups used for calculating R_complete,
 This must be greater than 1 but not greater than the total number of
 reflections for refinement. -m sets the current reflection group number.
 This may not be less than 1 nor greater than the number set by -g. These
 command line flags override other ways of defining free-R reflections.
 The -m value is also used as a seed for the WIGL pseudo-random shifts.

 -t sets the number of threads, otherwise it is set to the apparent
 number of CPUs. For optimal performance on hyperthreading systems,
 -t should be set to a little more than half the number of CPUs;
 e.g. -t4 or -t5 for an Intel i7 processor.

 Running  6 threads on 12 processors

 TITL p-1-firsttry_a.res in P-1
     p-1_a.res
     created by SHELXL-2018/3 at 16:52:16 on 15-Apr-2022
 REM Old TITL p-1-firsttry in P-1
 REM SHELXT solution in P-1
 REM R1 0.168,  Rweak 0.021,  Alpha 0.075,  Orientation as input
 REM Formula found by SHELXT:  C57 O16 F113 Al4 Ni2
 CELL  0.71073  10.6594  20.6268  23.5458   73.125   89.828   80.746
 ZERR   4.000   0.0030   0.0058   0.0051    0.006    0.013    0.010
 LATT  1
 SFAC  C  O  F  AL  NI
 UNIT 112 40 220 8 4

 V =     4884.37     F(000) =    3188.0     Mu =   0.70 mm-1      Cell Wt =     6615.80    Rho =  2.249

 ANIS ! automatically inserted
 ANIS ! automatically inserted
 ANIS ! automatically inserted
 EADP F8_1 F6_13
 EADP F2_1 F2_13
 EADP C2_13 C2_1
 EADP O1_13 O1_1
 REM Restraints for Fragment oc(cf3)3, Nonafluoro-tert-butoxy, [(CF3)3CO]-
 REM from: TURBOMOLE V6.0 B-P86/def-SV(P). Please cite
 REM https://doi.org/10.1107/S1600576718004508
 SADI_CCF3 0.02 C1 C2 C1 C3 C1 C4
 SADI_CCF3 0.02 F1 C2 F2 C2 F3 C2 F4 C3 F5 C3 F6 C3 F7 C4 F8 C4 F9 C4
 SADI_CCF3 0.04 C2 C3 C3 C4 C2 C4
 SADI_CCF3 0.04 O1 C2 O1 C3 O1 C4
 SADI_CCF3 0.04 F1 F2 F2 F3 F3 F1 F4 F5 F5 F6 F6 F4 F7 F8 F8 F9 F9 F7
 SADI_CCF3 0.02 O1 C1
 SADI_CCF3 0.04 F1 C1 F2 C1 F3 C1 F4 C1 F5 C1 F6 C1 F7 C1 F8 C1 F9 C1
 SIMU_CCF3 O1 > F9
 RIGU_CCF3 O1 > F9
 SAME_CCF3 O1 > F9
 SIMU 0.04 0.08 1
 TEMP -173.150
 L.S. 10
 more -1
 BOND $H
 LIST 4
 OMIT -4 3 16
 OMIT -4 3 17
 OMIT -6 3 13
 OMIT 0 5 20
 ACTA
 FMAP 2
 PLAN 20
  
 WGHT    0.073300   16.667999
 FVAR       0.19087   0.88670
 NI1   5   -0.150037    0.750162    0.309102    11.00000    0.02490    0.04002 =
          0.02634   -0.00993   -0.00215   -0.00470
 O1    2   -0.032646    0.669126    0.431995    11.00000    0.03396    0.06367 =
          0.03116   -0.00066   -0.00265   -0.00818
 C1    1   -0.076129    0.700248    0.387206    11.00000    0.02596    0.03966 =
          0.03493   -0.00998    0.00540   -0.00934
 AL1   4    1.017252    0.981582    0.577851    11.00000    0.01425    0.02479 =
          0.01675   -0.00673    0.00041   -0.00624
 F1    3    1.000000    1.000000    0.500000    10.50000    0.01869    0.03147 =
          0.01663   -0.00784   -0.00034   -0.00721
 NI2   5    1.367329    0.739603    0.796371    11.00000    0.04802    0.04278 =
          0.05022   -0.01744    0.01878   -0.01477
 O2    2    0.069664    0.821704    0.255449    11.00000    0.04046    0.05458 =
          0.03690   -0.00580    0.00370   -0.01528
 C2    1   -0.009991    0.795676    0.275160    11.00000    0.03302    0.03874 =
          0.02924   -0.00730   -0.00439   -0.00103
 F2    3    0.500000    0.500000    0.500000    10.50000    0.01975    0.02762 =
          0.01537   -0.00835   -0.00009   -0.00790
 AL2   4    0.507549    0.521397    0.567758    11.00000    0.01605    0.02304 =
          0.01616   -0.00661   -0.00030   -0.00624
 AL3   4    0.492496    1.016976    0.922167    11.00000    0.01275    0.01979 =
          0.01396   -0.00554   -0.00049   -0.00357
 O3    2   -0.410140    0.806631    0.344356    11.00000    0.03397    0.10801 =
          0.03816   -0.02390   -0.00223    0.01016
 C3    1   -0.316020    0.784856    0.330964    11.00000    0.03553    0.06500 =
          0.02299   -0.01232   -0.00738   -0.00462
 F3    3    0.500000    1.000000    1.000000    10.50000    0.02005    0.02765 =
          0.01233   -0.00701    0.00224   -0.00750
 C8    1    1.432210    0.680870    0.872941    11.00000    0.03311    0.06058 =
          0.05639   -0.03023    0.00657   -0.00607
 O8    2    1.469930    0.645990    0.917536    11.00000    0.03930    0.08446 =
          0.06097   -0.03303   -0.00220   -0.00084
 C7    1    1.324702    0.673192    0.758731    11.00000    0.05499    0.04954 =
          0.03622   -0.00528    0.01163   -0.00825
 O7    2    1.300359    0.636815    0.736182    11.00000    0.07399    0.06355 =
          0.04306   -0.02189    0.00472   -0.01945
 C6    1    1.237815    0.801384    0.819684    11.00000    0.06698    0.03429 =
          0.03988   -0.01560    0.01355   -0.00957
 O6    2    1.159207    0.836429    0.832183    11.00000    0.07542    0.04602 =
          0.06341   -0.01635    0.00822    0.00113
 C5    1    1.504713    0.780291    0.753214    11.00000    0.04759    0.03913 =
          0.03735   -0.01834    0.00260   -0.00837
 O5    2    1.585169    0.800760    0.729417    11.00000    0.05885    0.05899 =
          0.06533   -0.02579    0.02484   -0.03100
 F4    3    1.000000    0.500000    1.000000    10.50000    0.01903    0.02443 =
          0.01830   -0.00872   -0.00297   -0.00403
 O4    2   -0.207948    0.689571    0.210370    11.00000    0.06373    0.05374 =
          0.04065   -0.02212   -0.01053   -0.00280
 C4    1   -0.189847    0.713809    0.245288    11.00000    0.03588    0.03421 =
          0.03164   -0.00500   -0.00246    0.00316
 AL4   4    0.993571    0.464341    0.939941    11.00000    0.01338    0.02287 =
          0.01762   -0.00829   -0.00107   -0.00481
 RESI CCF3 1
 PART 1 21
 O1    2    1.175141    0.970664    0.596503    21.00000    0.01718    0.05667 =
          0.02704   -0.02169   -0.00109   -0.00832
 C1    1    1.272936    0.996805    0.614792    21.00000    0.02199    0.05544 =
          0.02350   -0.01228   -0.00402   -0.01419
 C2    1    1.261086    0.992374    0.681250    21.00000    0.02868    0.06034 =
          0.02733   -0.01602   -0.00034   -0.01597
 F1    3    1.291677    0.926385    0.715338    21.00000    0.05592    0.06442 =
          0.02925    0.00204   -0.01008   -0.02275
 F2    3    1.336764    1.028330    0.699338    21.00000    0.04178    0.07929 =
          0.03800   -0.02625   -0.00628   -0.02620
 F3    3    1.142385    1.015461    0.692894    21.00000    0.03365    0.08516 =
          0.03205   -0.02669    0.00360   -0.01986
 C3    1    1.272301    1.072521    0.578396    21.00000    0.04059    0.05802 =
          0.02993   -0.01135    0.00099   -0.02111
 F4    3    1.239448    1.081587    0.522047    21.00000    0.07429    0.06909 =
          0.02906   -0.00007   -0.00666   -0.01915
 F5    3    1.189476    1.115706    0.598393    21.00000    0.04280    0.05225 =
          0.05415   -0.01673   -0.00819   -0.01393
 F6    3    1.387417    1.089959    0.580976    21.00000    0.04428    0.07320 =
          0.07033   -0.00345    0.00236   -0.03331
 C4    1    1.398667    0.951036    0.606559    21.00000    0.01964    0.06861 =
          0.03708   -0.01858   -0.00576   -0.01180
 F7    3    1.427890    0.966568    0.550324    21.00000    0.02732    0.10214 =
          0.04155   -0.02696    0.00697   -0.01786
 F8    3    1.495470    0.958429    0.639500    21.00000    0.02349    0.08578 =
          0.06069   -0.02428   -0.01859   -0.01025
 F9    3    1.387552    0.884751    0.624400    21.00000    0.03329    0.06655 =
          0.05179   -0.01827   -0.01059   -0.00488
 PART 0
 RESI 0
 RESI CCF3 2
 O1    2    0.932436    1.049240    0.595818    11.00000    0.03103    0.03625 =
          0.03225   -0.01844   -0.00651    0.00255
 C1    1    0.827134    1.097930    0.588452    11.00000    0.02600    0.03090 =
          0.03421   -0.01208    0.00323   -0.00381
 C2    1    0.766768    1.091259    0.649144    11.00000    0.04847    0.04214 =
          0.03894   -0.01402    0.01198   -0.01344
 F1    3    0.699667    1.040488    0.662972    11.00000    0.07800    0.07598 =
          0.05086   -0.01167    0.02254   -0.04795
 F2    3    0.688404    1.149080    0.649446    11.00000    0.06414    0.06399 =
          0.05645   -0.02892    0.02788    0.00205
 F3    3    0.855553    1.078340    0.692527    11.00000    0.07556    0.05427 =
          0.02882   -0.01571    0.00944   -0.01795
 C3    1    0.868344    1.169465    0.565281    11.00000    0.03401    0.03721 =
          0.03047   -0.01283    0.00255   -0.01031
 F4    3    0.950291    1.170095    0.522748    11.00000    0.04206    0.07179 =
          0.02980   -0.01328    0.00755   -0.02668
 F5    3    0.926763    1.184777    0.608377    11.00000    0.05400    0.04336 =
          0.04178   -0.01627   -0.00550   -0.01875
 F6    3    0.770691    1.219327    0.543523    11.00000    0.05061    0.03417 =
          0.05737   -0.00930   -0.01052   -0.00292
 C4    1    0.728937    1.090051    0.543535    11.00000    0.02321    0.03618 =
          0.04252   -0.01766   -0.00094   -0.00182
 F7    3    0.766304    1.112740    0.488371    11.00000    0.03703    0.05312 =
          0.03335   -0.01592   -0.00702   -0.00544
 F8    3    0.613875    1.124640    0.546142    11.00000    0.01954    0.05416 =
          0.08223   -0.02360    0.00108   -0.00222
 F9    3    0.721330    1.024114    0.553964    11.00000    0.05107    0.03654 =
          0.06490   -0.01479   -0.01742   -0.01334
 RESI 0
 RESI CCF3 3
 O1    2    0.963277    0.905299    0.598402    11.00000    0.03989    0.02833 =
          0.02497   -0.00471    0.00286   -0.01539
 C1    1    0.953394    0.848135    0.643004    11.00000    0.03455    0.02592 =
          0.02411   -0.00443    0.00818   -0.00935
 C2    1    0.916624    0.866884    0.700815    11.00000    0.05394    0.04349 =
          0.03394   -0.01658    0.01458   -0.02112
 F1    3    0.793418    0.894624    0.696982    11.00000    0.05348    0.07622 =
          0.06733   -0.03718    0.03166   -0.01592
 F2    3    0.937718    0.813486    0.749199    11.00000    0.10584    0.05014 =
          0.02689   -0.00915    0.01614   -0.03700
 F3    3    0.981889    0.913932    0.707994    11.00000    0.07364    0.04571 =
          0.03728   -0.01785    0.00462   -0.02829
 C3    1    1.081144    0.797265    0.655153    11.00000    0.04326    0.03999 =
          0.03660   -0.00740    0.00461   -0.00762
 F4    3    1.134863    0.794058    0.606036    11.00000    0.04662    0.05683 =
          0.05531   -0.01931    0.01837   -0.00054
 F5    3    1.164409    0.818850    0.686184    11.00000    0.04651    0.06085 =
          0.05328   -0.00240   -0.01249   -0.01368
 F6    3    1.067735    0.733840    0.686879    11.00000    0.06578    0.03206 =
          0.06461    0.00240    0.00027   -0.00201
 C4    1    0.848766    0.813708    0.623696    11.00000    0.05078    0.04009 =
          0.03517   -0.01214    0.00694   -0.02112
 F7    3    0.892748    0.786259    0.581054    11.00000    0.08358    0.05634 =
          0.04273   -0.02706    0.01809   -0.04193
 F8    3    0.815917    0.763943    0.668628    11.00000    0.06179    0.04645 =
          0.04397   -0.00879    0.01312   -0.03406
 F9    3    0.745342    0.858524    0.602287    11.00000    0.04065    0.06166 =
          0.05603   -0.00854   -0.00516   -0.02382
 RESI 0
 RESI CCF3 4
 O1    2    0.363899    0.514302    0.598667    11.00000    0.01616    0.03249 =
          0.02015   -0.00790    0.00141   -0.00753
 C1    1    0.234433    0.528612    0.594328    11.00000    0.01530    0.03758 =
          0.01736   -0.00856    0.00132   -0.00988
 C2    1    0.184080    0.500125    0.657017    11.00000    0.02298    0.04855 =
          0.02287   -0.00968    0.00387   -0.01010
 F1    3    0.192955    0.431686    0.672176    11.00000    0.03618    0.04699 =
          0.03328    0.00124    0.00746   -0.01689
 F2    3    0.062227    0.526631    0.659572    11.00000    0.02268    0.07120 =
          0.03322   -0.01412    0.01099   -0.00558
 F3    3    0.250495    0.514736    0.697942    11.00000    0.03604    0.06835 =
          0.01767   -0.01650    0.00224   -0.01096
 C3    1    0.188493    0.607111    0.571191    11.00000    0.02178    0.03783 =
          0.02502   -0.00932   -0.00127   -0.00342
 F4    3    0.256572    0.635147    0.526123    11.00000    0.03273    0.03696 =
          0.03242    0.00066    0.00043   -0.00813
 F5    3    0.200684    0.636785    0.613508    11.00000    0.03766    0.04175 =
          0.04334   -0.02236   -0.00431   -0.00064
 F6    3    0.066024    0.622672    0.551958    11.00000    0.02011    0.05162 =
          0.04631   -0.00937   -0.00863    0.00321
 C4    1    0.184512    0.492582    0.551834    11.00000    0.01991    0.04538 =
          0.02692   -0.01363    0.00542   -0.01421
 F7    3    0.201311    0.526421    0.495709    11.00000    0.03599    0.06113 =
          0.02418   -0.01604    0.00171   -0.01706
 F8    3    0.061629    0.488419    0.557526    11.00000    0.02034    0.06760 =
          0.04306   -0.02213    0.00108   -0.02141
 F9    3    0.248187    0.429035    0.562538    11.00000    0.04082    0.04085 =
          0.04751   -0.02276   -0.00121   -0.01223
 RESI 0
 RESI CCF3 5
 O1    2    0.549769    0.601384    0.543286    11.00000    0.02137    0.02549 =
          0.02036   -0.00747   -0.00256   -0.00866
 C1    1    0.601414    0.648611    0.561581    11.00000    0.02215    0.02540 =
          0.02484   -0.00987   -0.00235   -0.00921
 C2    1    0.739129    0.618657    0.588593    11.00000    0.02579    0.03022 =
          0.04390   -0.01280   -0.00872   -0.01170
 F1    3    0.735643    0.578197    0.643872    11.00000    0.05277    0.03830 =
          0.04079   -0.00586   -0.02447   -0.01118
 F2    3    0.803978    0.668114    0.590578    11.00000    0.02721    0.03748 =
          0.06431   -0.02216   -0.00729   -0.01326
 F3    3    0.801518    0.581836    0.556968    11.00000    0.02040    0.04288 =
          0.06057   -0.02713   -0.00566   -0.00190
 C3    1    0.605605    0.711691    0.506580    11.00000    0.03132    0.02904 =
          0.03396   -0.00769   -0.00123   -0.00875
 F4    3    0.496345    0.728146    0.473922    11.00000    0.04220    0.02848 =
          0.04121   -0.00457   -0.01557   -0.00194
 F5    3    0.697915    0.698117    0.471386    11.00000    0.04615    0.04281 =
          0.03823   -0.00820    0.01761   -0.01572
 F6    3    0.623357    0.767115    0.521750    11.00000    0.04732    0.02639 =
          0.05317   -0.00988   -0.00426   -0.01219
 C4    1    0.518735    0.672088    0.608526    11.00000    0.03638    0.04114 =
          0.03978   -0.02168    0.00199   -0.01619
 F7    3    0.411872    0.714542    0.583623    11.00000    0.02720    0.05232 =
          0.06936   -0.03362    0.00802   -0.00438
 F8    3    0.579572    0.704094    0.639128    11.00000    0.05162    0.05700 =
          0.04583   -0.03597    0.00755   -0.02159
 F9    3    0.484451    0.617415    0.648169    11.00000    0.05268    0.05619 =
          0.03710   -0.02189    0.01832   -0.02719
 RESI 0
 RESI CCF3 6
 O1    2    0.625998    0.464006    0.612437    11.00000    0.02130    0.02501 =
          0.01724   -0.00434   -0.00101   -0.00497
 C1    1    0.659261    0.405362    0.658125    11.00000    0.02341    0.02400 =
          0.01934   -0.00582    0.00020   -0.00509
 C2    1    0.798687    0.403030    0.679467    11.00000    0.02344    0.02967 =
          0.02535   -0.00582   -0.00333   -0.00041
 F1    3    0.804034    0.443406    0.713619    11.00000    0.03598    0.04383 =
          0.03757   -0.01778   -0.01370   -0.00587
 F2    3    0.853048    0.339073    0.711113    11.00000    0.03409    0.03595 =
          0.03982   -0.00322   -0.00936    0.00591
 F3    3    0.870555    0.423010    0.633825    11.00000    0.02096    0.04660 =
          0.03789   -0.00611    0.00174   -0.00479
 C3    1    0.652799    0.342168    0.636204    11.00000    0.03838    0.03088 =
          0.02657   -0.00937    0.00334   -0.01167
 F4    3    0.545664    0.352359    0.603339    11.00000    0.05274    0.05032 =
          0.04130   -0.02150   -0.00709   -0.02322
 F5    3    0.749212    0.332842    0.601431    11.00000    0.05792    0.03760 =
          0.03483   -0.01879    0.01515   -0.01029
 F6    3    0.657138    0.284307    0.679641    11.00000    0.05751    0.02561 =
          0.04314   -0.00669    0.00838   -0.01318
 C4    1    0.571316    0.404262    0.711179    11.00000    0.02973    0.03156 =
          0.02128   -0.00343   -0.00141   -0.00412
 F7    3    0.461736    0.384938    0.701300    11.00000    0.02923    0.04273 =
          0.03366   -0.00203    0.00472   -0.01175
 F8    3    0.624689    0.360325    0.761964    11.00000    0.04396    0.04305 =
          0.01718   -0.00014   -0.00051    0.00036
 F9    3    0.544125    0.466081    0.718474    11.00000    0.03681    0.03837 =
          0.02759   -0.01335    0.00435    0.00023
 RESI 0
 RESI CCF3 7
 O1    2    0.337142    1.040959    0.898878    11.00000    0.01027    0.03616 =
          0.02437   -0.00260   -0.00009   -0.00552
 C1    1    0.211795    1.035533    0.902582    11.00000    0.01027    0.03155 =
          0.02234   -0.00644   -0.00238   -0.00630
 C2    1    0.162390    1.030753    0.842415    11.00000    0.01917    0.03677 =
          0.02864   -0.01185   -0.00246   -0.00642
 F1    3    0.205165    0.969684    0.835367    11.00000    0.04065    0.04131 =
          0.04256   -0.02370   -0.00136   -0.00432
 F2    3    0.035965    1.042336    0.836474    11.00000    0.01791    0.05580 =
          0.03337   -0.01667   -0.00673   -0.00854
 F3    3    0.203773    1.077466    0.797168    11.00000    0.02599    0.04837 =
          0.01884   -0.00940   -0.00046   -0.00755
 C3    1    0.137774    1.100422    0.915788    11.00000    0.02206    0.03307 =
          0.01998   -0.00887    0.00125   -0.00534
 F4    3    0.199952    1.116790    0.956991    11.00000    0.03809    0.04439 =
          0.02492   -0.01669   -0.00314   -0.01169
 F5    3    0.125697    1.154993    0.866538    11.00000    0.03534    0.03029 =
          0.02659   -0.00503   -0.00236   -0.00124
 F6    3    0.021914    1.092576    0.933917    11.00000    0.01999    0.04967 =
          0.03748   -0.01439    0.00889   -0.00348
 C4    1    0.192712    0.970264    0.952875    11.00000    0.01906    0.03300 =
          0.02862   -0.00494    0.00206   -0.00652
 F7    3    0.202360    0.980771    1.005734    11.00000    0.03231    0.04633 =
          0.02263   -0.00008   -0.00027   -0.01239
 F8    3    0.079610    0.952424    0.947674    11.00000    0.02743    0.04816 =
          0.04335   -0.00523    0.00191   -0.02309
 F9    3    0.282200    0.917905    0.951932    11.00000    0.03813    0.03223 =
          0.04465    0.00113    0.00653    0.00039
 RESI 0
 RESI CCF3 8
 O1    2    0.576876    1.081765    0.894800    11.00000    0.01848    0.02431 =
          0.01940   -0.00286   -0.00206   -0.00728
 C1    1    0.576548    1.149010    0.866263    11.00000    0.01566    0.02283 =
          0.01770   -0.00405   -0.00263   -0.00593
 C2    1    0.489628    1.196000    0.896367    11.00000    0.02163    0.03147 =
          0.02515   -0.00821    0.00323   -0.00603
 F1    3    0.366348    1.200014    0.880553    11.00000    0.01556    0.03711 =
          0.04207   -0.01194    0.00213   -0.00367
 F2    3    0.514351    1.259739    0.881214    11.00000    0.03026    0.02904 =
          0.05123   -0.01975    0.00292   -0.00707
 F3    3    0.501114    1.170686    0.954849    11.00000    0.03798    0.05605 =
          0.02232   -0.01543    0.00517    0.00018
 C3    1    0.715695    1.162682    0.868628    11.00000    0.01993    0.02793 =
          0.02554   -0.00484   -0.00103   -0.00973
 F4    3    0.796738    1.112532    0.858107    11.00000    0.01707    0.03649 =
          0.03835   -0.01019    0.00420   -0.00494
 F5    3    0.745937    1.165912    0.922857    11.00000    0.02494    0.03489 =
          0.02979   -0.00768   -0.00878   -0.01323
 F6    3    0.731315    1.221645    0.829446    11.00000    0.02342    0.03468 =
          0.03190    0.00050    0.00031   -0.01429
 C4    1    0.530508    1.166559    0.799925    11.00000    0.02239    0.03033 =
          0.01921   -0.00456   -0.00109   -0.01044
 F7    3    0.620017    1.141441    0.768752    11.00000    0.03657    0.04754 =
          0.02003   -0.01196    0.00580   -0.00813
 F8    3    0.498556    1.233813    0.773905    11.00000    0.03071    0.03062 =
          0.02266    0.00101   -0.00428   -0.00905
 F9    3    0.428232    1.138253    0.795649    11.00000    0.02727    0.03836 =
          0.02273   -0.00402   -0.00748   -0.01567
 RESI 0
 RESI CCF3 9
 O1    2    0.569853    0.939434    0.916712    11.00000    0.02022    0.02191 =
          0.02352   -0.00829    0.00098   -0.00004
 C1    1    0.627200    0.907809    0.878395    11.00000    0.02220    0.03159 =
          0.01761   -0.01236   -0.00223    0.00014
 C2    1    0.763256    0.925908    0.866856    11.00000    0.02375    0.06458 =
          0.03487   -0.02553    0.00411   -0.00698
 F1    3    0.758173    0.988204    0.828713    11.00000    0.04898    0.06341 =
          0.04832   -0.02654    0.02226   -0.02752
 F2    3    0.836757    0.881073    0.844167    11.00000    0.02719    0.08988 =
          0.05253   -0.03688    0.00481    0.00687
 F3    3    0.820461    0.924478    0.916945    11.00000    0.02444    0.11708 =
          0.04392   -0.04359   -0.00276   -0.01469
 C3    1    0.634639    0.829710    0.906190    11.00000    0.05541    0.03497 =
          0.02596   -0.01384   -0.00022   -0.00005
 F4    3    0.524291    0.814710    0.927770    11.00000    0.07578    0.03591 =
          0.03857   -0.01275    0.01217   -0.02167
 F5    3    0.722784    0.806176    0.950506    11.00000    0.07247    0.04688 =
          0.03602   -0.00701   -0.01560    0.02602
 F6    3    0.664196    0.795534    0.865768    11.00000    0.09386    0.03578 =
          0.04099   -0.02195    0.00789    0.00484
 C4    1    0.549924    0.931679    0.817497    11.00000    0.03137    0.03980 =
          0.02419   -0.01495   -0.00480   -0.00309
 F7    3    0.448955    0.899683    0.822016    11.00000    0.03153    0.06622 =
          0.04629   -0.02711   -0.00702   -0.01320
 F8    3    0.616378    0.918105    0.773765    11.00000    0.04263    0.05099 =
          0.02230   -0.01803    0.00043   -0.00332
 F9    3    0.507258    0.998500    0.802739    11.00000    0.04406    0.03524 =
          0.02820   -0.00807   -0.01039    0.00637
 RESI 0
 RESI CCF3 10
 O1    2    0.880773    0.516977    0.888290    11.00000    0.02101    0.02652 =
          0.01865   -0.00626   -0.00378   -0.00193
 C1    1    0.852412    0.570505    0.838367    11.00000    0.02693    0.03031 =
          0.01968   -0.00692   -0.00318   -0.00493
 C2    1    0.947817    0.564250    0.789494    11.00000    0.03254    0.04951 =
          0.02055   -0.00681   -0.00197   -0.00643
 F1    3    1.056254    0.583771    0.800291    11.00000    0.03229    0.07629 =
          0.03577    0.00137    0.00202   -0.02040
 F2    3    0.902031    0.604087    0.735839    11.00000    0.04671    0.06708 =
          0.01804   -0.00421   -0.00070    0.00077
 F3    3    0.975523    0.500319    0.788062    11.00000    0.04060    0.05679 =
          0.03067   -0.01920    0.00224    0.00728
 C3    1    0.716164    0.569351    0.814977    11.00000    0.02736    0.04148 =
          0.02759   -0.01008   -0.00762    0.00563
 F4    3    0.638190    0.554857    0.859545    11.00000    0.02240    0.06278 =
          0.03822   -0.01177   -0.00124    0.00299
 F5    3    0.717631    0.522311    0.787057    11.00000    0.03877    0.06147 =
          0.03958   -0.02490   -0.01326   -0.00708
 F6    3    0.664441    0.629929    0.776769    11.00000    0.04632    0.05187 =
          0.03673   -0.00273   -0.01450    0.01431
 C4    1    0.851954    0.639093    0.852776    11.00000    0.06986    0.03117 =
          0.02458   -0.00404   -0.00337   -0.01484
 F7    3    0.747993    0.653952    0.881696    11.00000    0.09567    0.03123 =
          0.03620   -0.01315    0.00933    0.00369
 F8    3    0.855423    0.691578    0.804909    11.00000    0.10372    0.03253 =
          0.03805   -0.00022    0.00094   -0.02130
 F9    3    0.953077    0.632983    0.888276    11.00000    0.09813    0.05174 =
          0.04334   -0.01280   -0.01744   -0.04189
 RESI 0
 RESI CCF3 11
 O1    2    0.944346    0.387830    0.974021    11.00000    0.01991    0.02327 =
          0.02677   -0.01025   -0.00127   -0.00815
 C1    1    0.894106    0.335382    0.963565    11.00000    0.01879    0.02385 =
          0.03665   -0.01458   -0.00141   -0.00781
 C2    1    0.973277    0.305321    0.919225    11.00000    0.03070    0.03894 =
          0.05109   -0.02524    0.00374   -0.01415
 F1    3    1.080740    0.264066    0.946608    11.00000    0.02302    0.04112 =
          0.07718   -0.03285    0.00527   -0.00248
 F2    3    0.909244    0.270062    0.893418    11.00000    0.03691    0.05584 =
          0.06429   -0.04597    0.01022   -0.02161
 F3    3    1.007151    0.356793    0.874838    11.00000    0.04173    0.05127 =
          0.03727   -0.02309    0.00948   -0.02240
 C3    1    0.754326    0.360357    0.938811    11.00000    0.02614    0.03557 =
          0.06002   -0.02329   -0.00239   -0.00857
 F4    3    0.692677    0.402339    0.966290    11.00000    0.01886    0.04336 =
          0.07221   -0.03453   -0.00354   -0.00009
 F5    3    0.752605    0.394405    0.880372    11.00000    0.04347    0.05008 =
          0.05422   -0.01449   -0.02449   -0.00897
 F6    3    0.691488    0.307934    0.945421    11.00000    0.02067    0.04872 =
          0.08734   -0.03940    0.00274   -0.01448
 C4    1    0.897613    0.278205    1.023723    11.00000    0.03731    0.03549 =
          0.04831   -0.01113    0.00550   -0.01453
 F7    3    0.806100    0.298319    1.057969    11.00000    0.06098    0.04841 =
          0.05895   -0.01775    0.02987   -0.02181
 F8    3    0.879145    0.218940    1.016165    11.00000    0.05826    0.02579 =
          0.07511   -0.01088   -0.00444   -0.01812
 F9    3    1.008420    0.266821    1.052904    11.00000    0.04482    0.03058 =
          0.04505   -0.00500   -0.01021   -0.00524
 RESI 0
 RESI CCF3 12
 O1    2    1.140268    0.461916    0.910956    11.00000    0.01386    0.03253 =
          0.02270   -0.01169    0.00045   -0.00281
 C1    1    1.269481    0.443281    0.918161    11.00000    0.01287    0.03173 =
          0.02494   -0.01345    0.00112   -0.00567
 C2    1    1.326711    0.453751    0.856219    11.00000    0.02247    0.04553 =
          0.02901   -0.01342    0.00530   -0.00995
 F1    3    1.327748    0.520067    0.829765    11.00000    0.04080    0.05294 =
          0.03669   -0.00045    0.01081   -0.01573
 F2    3    1.445884    0.420836    0.859997    11.00000    0.02206    0.06583 =
          0.04195   -0.02163    0.01425   -0.00566
 F3    3    1.257890    0.431668    0.821370    11.00000    0.03714    0.07423 =
          0.02773   -0.02761    0.00447   -0.01396
 C3    1    1.305075    0.366255    0.954643    11.00000    0.01777    0.03190 =
          0.03204   -0.01248   -0.00088   -0.00269
 F4    3    1.231123    0.351548    1.000242    11.00000    0.02751    0.03730 =
          0.03012   -0.00490    0.00298   -0.00588
 F5    3    1.288895    0.326020    0.921036    11.00000    0.02907    0.03589 =
          0.04607   -0.02395    0.00389   -0.00532
 F6    3    1.425567    0.350115    0.975800    11.00000    0.01859    0.04425 =
          0.04884   -0.01198   -0.00581    0.00033
 C4    1    1.320869    0.489280    0.951368    11.00000    0.01684    0.03502 =
          0.03326   -0.01787    0.00175   -0.00685
 F7    3    1.297699    0.469242    1.008736    11.00000    0.03429    0.05036 =
          0.03137   -0.02420   -0.00197   -0.00806
 F8    3    1.446693    0.487081    0.946575    11.00000    0.01756    0.05347 =
          0.05745   -0.02847    0.00004   -0.01294
 F9    3    1.265323    0.554334    0.928974    11.00000    0.03306    0.03361 =
          0.05524   -0.02088   -0.00284   -0.00805
 RESI 0
 RESI CCF3 13
 PART 2  -21
 O1    2    1.169096    0.980637    0.597211   -21.00000    0.01718    0.05667 =
          0.02704   -0.02169   -0.00109   -0.00832
 C1    1    1.267251    1.006329    0.615135   -21.00000    0.01546    0.06120 =
          0.03368   -0.02173   -0.00009   -0.01134
 C2    1    1.228553    1.033761    0.668298   -21.00000    0.02868    0.06034 =
          0.02733   -0.01602   -0.00034   -0.01597
 F1    3    1.152109    1.094538    0.650528   -21.00000    0.03545    0.07060 =
          0.04072   -0.03607   -0.00754   -0.00576
 F2    3    1.328068    1.042992    0.697268   -21.00000    0.04178    0.07929 =
          0.03800   -0.02625   -0.00628   -0.02620
 F3    3    1.164920    0.991634    0.707165   -21.00000    0.05725    0.08870 =
          0.02560   -0.02316    0.00399   -0.03859
 C3    1    1.385208    0.948887    0.632745   -21.00000    0.02289    0.06428 =
          0.05859   -0.01971   -0.01120   -0.00554
 F4    3    1.400664    0.913512    0.593403   -21.00000    0.01350    0.06291 =
          0.06878   -0.02504   -0.01495    0.00930
 F5    3    1.371394    0.906256    0.685850   -21.00000    0.05533    0.08231 =
          0.07053   -0.00425    0.00718    0.00225
 F6    3    1.490651    0.975237    0.635438   -21.00000    0.02349    0.08578 =
          0.06069   -0.02428   -0.01859   -0.01025
 C4    1    1.299228    1.065268    0.562041   -21.00000    0.01622    0.06851 =
          0.02936   -0.01710    0.00047   -0.01069
 F7    3    1.370124    1.042276    0.523255   -21.00000    0.05948    0.07341 =
          0.04943   -0.02450    0.03058   -0.01579
 F8    3    1.361693    1.107814    0.578799   -21.00000    0.03330    0.07361 =
          0.00951   -0.00743    0.00432   -0.02579
 F9    3    1.188855    1.100862    0.535823   -21.00000    0.02361    0.08966 =
          0.05258   -0.01381   -0.01064   -0.00471
 PART 0
 RESI 0
 HKLF 4



 Covalent radii and connectivity table for  p-1-firsttry_a.res in P-1                                                  
 C      0.770
 O      0.660
 F      0.640
 AL     1.250
 NI     1.250

 Ni1 - C3 C1 C2 C4
 O1 - C1
 C1 - O1 Ni1
 Al1 - O1_13^b O1_2 O1_3 O1_1^a F1
 F1 - Al1_$1 Al1
 Ni2 - C8 C6 C5 C7
 O2 - C2
 C2 - O2 Ni1
 F2 - Al2 Al2_$2
 Al2 - O1_4 O1_6 O1_5 F2
 Al3 - O1_7 O1_8 O1_9 F3
 O3 - C3
 C3 - O3 Ni1
 F3 - Al3 Al3_$3
 C8 - O8 Ni2
 O8 - C8
 C7 - O7 Ni2
 O7 - C7
 C6 - O6 Ni2
 O6 - C6
 C5 - O5 Ni2
 O5 - C5
 F4 - Al4 Al4_$4
 O4 - C4
 C4 - O4 Ni1
 Al4 - O1_12 O1_10 O1_11 F4
 O1_1^a - C1_1^a Al1
 C1_1^a - O1_1^a C2_1^a C3_1^a C4_1^a
 C2_1^a - F2_1^a F3_1^a F1_1^a C1_1^a
 F1_1^a - C2_1^a
 F2_1^a - C2_1^a
 F3_1^a - C2_1^a
 C3_1^a - F4_1^a F5_1^a F6_1^a C1_1^a
 F4_1^a - C3_1^a
 F5_1^a - C3_1^a
 F6_1^a - C3_1^a
 C4_1^a - F7_1^a F9_1^a F8_1^a C1_1^a
 F7_1^a - C4_1^a
 F8_1^a - C4_1^a
 F9_1^a - C4_1^a
 O1_2 - C1_2 Al1
 C1_2 - O1_2 C2_2 C4_2 C3_2
 C2_2 - F1_2 F3_2 F2_2 C1_2
 F1_2 - C2_2
 F2_2 - C2_2
 F3_2 - C2_2
 C3_2 - F6_2 F4_2 F5_2 C1_2
 F4_2 - C3_2
 F5_2 - C3_2
 F6_2 - C3_2
 C4_2 - F9_2 F8_2 F7_2 C1_2
 F7_2 - C4_2
 F8_2 - C4_2
 F9_2 - C4_2
 O1_3 - C1_3 Al1
 C1_3 - O1_3 C4_3 C3_3 C2_3
 C2_3 - F2_3 F3_3 F1_3 C1_3
 F1_3 - C2_3
 F2_3 - C2_3
 F3_3 - C2_3
 C3_3 - F4_3 F6_3 F5_3 C1_3
 F4_3 - C3_3
 F5_3 - C3_3
 F6_3 - C3_3
 C4_3 - F9_3 F8_3 F7_3 C1_3
 F7_3 - C4_3
 F8_3 - C4_3
 F9_3 - C4_3
 O1_4 - C1_4 Al2
 C1_4 - O1_4 C3_4 C4_4 C2_4
 C2_4 - F3_4 F2_4 F1_4 C1_4
 F1_4 - C2_4
 F2_4 - C2_4
 F3_4 - C2_4
 C3_4 - F4_4 F5_4 F6_4 C1_4
 F4_4 - C3_4
 F5_4 - C3_4
 F6_4 - C3_4
 C4_4 - F9_4 F7_4 F8_4 C1_4
 F7_4 - C4_4
 F8_4 - C4_4
 F9_4 - C4_4
 O1_5 - C1_5 Al2
 C1_5 - O1_5 C4_5 C3_5 C2_5
 C2_5 - F3_5 F1_5 F2_5 C1_5
 F1_5 - C2_5
 F2_5 - C2_5
 F3_5 - C2_5
 C3_5 - F5_5 F6_5 F4_5 C1_5
 F4_5 - C3_5
 F5_5 - C3_5
 F6_5 - C3_5
 C4_5 - F8_5 F7_5 F9_5 C1_5
 F7_5 - C4_5
 F8_5 - C4_5
 F9_5 - C4_5
 O1_6 - C1_6 Al2
 C1_6 - O1_6 C3_6 C4_6 C2_6
 C2_6 - F1_6 F3_6 F2_6 C1_6
 F1_6 - C2_6
 F2_6 - C2_6
 F3_6 - C2_6
 C3_6 - F6_6 F4_6 F5_6 C1_6
 F4_6 - C3_6
 F5_6 - C3_6
 F6_6 - C3_6
 C4_6 - F9_6 F7_6 F8_6 C1_6
 F7_6 - C4_6
 F8_6 - C4_6
 F9_6 - C4_6
 O1_7 - C1_7 Al3
 C1_7 - O1_7 C2_7 C3_7 C4_7
 C2_7 - F1_7 F2_7 F3_7 C1_7
 F1_7 - C2_7
 F2_7 - C2_7
 F3_7 - C2_7
 C3_7 - F6_7 F4_7 F5_7 C1_7
 F4_7 - C3_7
 F5_7 - C3_7
 F6_7 - C3_7
 C4_7 - F9_7 F7_7 F8_7 C1_7
 F7_7 - C4_7
 F8_7 - C4_7
 F9_7 - C4_7
 O1_8 - C1_8 Al3
 C1_8 - O1_8 C2_8 C3_8 C4_8
 C2_8 - F3_8 F2_8 F1_8 C1_8
 F1_8 - C2_8
 F2_8 - C2_8
 F3_8 - C2_8
 C3_8 - F4_8 F6_8 F5_8 C1_8
 F4_8 - C3_8
 F5_8 - C3_8
 F6_8 - C3_8
 C4_8 - F8_8 F7_8 F9_8 C1_8
 F7_8 - C4_8
 F8_8 - C4_8
 F9_8 - C4_8
 O1_9 - C1_9 Al3
 C1_9 - O1_9 C3_9 C2_9 C4_9
 C2_9 - F3_9 F1_9 F2_9 C1_9
 F1_9 - C2_9
 F2_9 - C2_9
 F3_9 - C2_9
 C3_9 - F4_9 F5_9 F6_9 C1_9
 F4_9 - C3_9
 F5_9 - C3_9
 F6_9 - C3_9
 C4_9 - F8_9 F9_9 F7_9 C1_9
 F7_9 - C4_9
 F8_9 - C4_9
 F9_9 - C4_9
 O1_10 - C1_10 Al4
 C1_10 - O1_10 C4_10 C2_10 C3_10
 C2_10 - F3_10 F1_10 F2_10 C1_10
 F1_10 - C2_10
 F2_10 - C2_10
 F3_10 - C2_10
 C3_10 - F5_10 F4_10 F6_10 C1_10
 F4_10 - C3_10
 F5_10 - C3_10
 F6_10 - C3_10
 C4_10 - F8_10 F9_10 F7_10 C1_10
 F7_10 - C4_10
 F8_10 - C4_10
 F9_10 - C4_10
 O1_11 - C1_11 Al4
 C1_11 - O1_11 C2_11 C3_11 C4_11
 C2_11 - F2_11 F1_11 F3_11 C1_11
 F1_11 - C2_11
 F2_11 - C2_11
 F3_11 - C2_11
 C3_11 - F4_11 F6_11 F5_11 C1_11
 F4_11 - C3_11
 F5_11 - C3_11
 F6_11 - C3_11
 C4_11 - F9_11 F8_11 F7_11 C1_11
 F7_11 - C4_11
 F8_11 - C4_11
 F9_11 - C4_11
 O1_12 - C1_12 Al4
 C1_12 - O1_12 C2_12 C4_12 C3_12
 C2_12 - F3_12 F1_12 F2_12 C1_12
 F1_12 - C2_12
 F2_12 - C2_12
 F3_12 - C2_12
 C3_12 - F4_12 F5_12 F6_12 C1_12
 F4_12 - C3_12
 F5_12 - C3_12
 F6_12 - C3_12
 C4_12 - F7_12 F9_12 F8_12 C1_12
 F7_12 - C4_12
 F8_12 - C4_12
 F9_12 - C4_12
 O1_13^b - C1_13^b Al1
 C1_13^b - O1_13^b C2_13^b C3_13^b C4_13^b
 C2_13^b - F2_13^b F3_13^b F1_13^b C1_13^b
 F1_13^b - C2_13^b
 F2_13^b - C2_13^b
 F3_13^b - C2_13^b
 C3_13^b - F5_13^b F4_13^b F6_13^b C1_13^b
 F4_13^b - C3_13^b
 F5_13^b - C3_13^b
 F6_13^b - C3_13^b
 C4_13^b - F8_13^b F7_13^b F9_13^b C1_13^b
 F7_13^b - C4_13^b
 F8_13^b - C4_13^b
 F9_13^b - C4_13^b


 Operators for generating equivalent atoms:
 $1   -x+2, -y+2, -z+1
 $2   -x+1, -y+1, -z+1
 $3   -x+1, -y+2, -z+2
 $4   -x+2, -y+1, -z+2


   157580  Reflections read, of which      21  rejected

 -13 =< h =< 13,    -25 =< k =< 25,    -29 =< l =< 29,   Max. 2-theta =   52.75

        0  Systematic absence violations (I>3sig(I)) before merging

        0  Inconsistent equivalents

    19930  Unique reflections, of which       0  suppressed

 R(int) = 0.0902     R(sigma) = 0.0528      Friedel opposites merged

 Maximum memory for data reduction =    14729 /   199550


 Reflection statistics for all twin components combined (TWST 0 set)
 Number of data for d > 0.800A (CIF: max) and d > 0.833A (CIF: full)
 (ignoring systematic absences):
 Unique reflections found (point group)      19930   17678
 Unique reflections possible (point group)   19978   17687
 Unique reflections found (Laue group)       19930   17678
 Unique reflections possible (Laue group)    19978   17687

 Special position constraints for F1
 x =  1.0000   y =  1.0000   z =  0.5000   sof = 0.50000   
 Input constraints retained (at least in part) for  sof

 Special position constraints for F2
 x =  0.5000   y =  0.5000   z =  0.5000   sof = 0.50000   
 Input constraints retained (at least in part) for  sof

 Special position constraints for F3
 x =  0.5000   y =  1.0000   z =  1.0000   sof = 0.50000   
 Input constraints retained (at least in part) for  sof

 Special position constraints for F4
 x =  1.0000   y =  0.5000   z =  1.0000   sof = 0.50000   
 Input constraints retained (at least in part) for  sof


 Least-squares cycle   1   Maximum vector length =  623   Memory required =     70 /  19051 /  4013146

 wR2 =  0.1766 before cycle   1 for   19930 data and   1838 /   1838 parameters


 Summary of restraints applied in cycle    1

               ANTIBUMP  DFIX    DANG SAME/SADI CHIV/Z CHIV/NZ   FLAT    DELU    RIGU    SIMU    ISOR    SUMP

       Number       0       0       0   22659       0       0       0       0    1443    1086       0       0

 rms sigma      0.0000  0.0000  0.0000  0.0346  0.0000  0.0000  0.0000  0.0000  0.0453  0.0699  0.0000  0.0000

 rms deviation  0.0000  0.0000  0.0000  0.0174  0.0000  0.0000  0.0000  0.0000  0.0092  0.0117  0.0000  0.0000


 GooF = S =     1.077;     Restrained GooF =      0.805 for   25188 restraints

 Weight = 1 / [ sigma^2(Fo^2) + ( 0.0733 * P )^2 +  16.67 * P ]   where  P = ( Max ( Fo^2, 0 ) + 2 * Fc^2 ) / 3


     N      value        esd    shift/esd  parameter

     1     0.19087     0.00026    -0.008    OSF
     2     0.88670     0.00448     0.000   FVAR  2 

 Mean shift/esd =   0.001  Maximum =     0.013 for  U13 Ni1      

 Max. shift = 0.000 A for F3_13^b      Max. dU = 0.000 for F6_9    


 Least-squares cycle   2   Maximum vector length =  623   Memory required =     70 /  19051 /  4013146

 wR2 =  0.1766 before cycle   2 for   19930 data and   1838 /   1838 parameters


 Summary of restraints applied in cycle    2

               ANTIBUMP  DFIX    DANG SAME/SADI CHIV/Z CHIV/NZ   FLAT    DELU    RIGU    SIMU    ISOR    SUMP

       Number       0       0       0   22659       0       0       0       0    1443    1086       0       0

 rms sigma      0.0000  0.0000  0.0000  0.0346  0.0000  0.0000  0.0000  0.0000  0.0453  0.0699  0.0000  0.0000

 rms deviation  0.0000  0.0000  0.0000  0.0174  0.0000  0.0000  0.0000  0.0000  0.0092  0.0117  0.0000  0.0000


 GooF = S =     1.077;     Restrained GooF =      0.805 for   25188 restraints

 Weight = 1 / [ sigma^2(Fo^2) + ( 0.0733 * P )^2 +  16.67 * P ]   where  P = ( Max ( Fo^2, 0 ) + 2 * Fc^2 ) / 3


     N      value        esd    shift/esd  parameter

     1     0.19087     0.00026     0.000    OSF
     2     0.88670     0.00448     0.000   FVAR  2 

 Mean shift/esd =   0.000  Maximum =     0.005 for  U13 Ni1      

 Max. shift = 0.000 A for F7_11        Max. dU = 0.000 for F1_3    


 Least-squares cycle   3   Maximum vector length =  623   Memory required =     70 /  19051 /  4013146

 wR2 =  0.1766 before cycle   3 for   19930 data and   1838 /   1838 parameters


 Summary of restraints applied in cycle    3

               ANTIBUMP  DFIX    DANG SAME/SADI CHIV/Z CHIV/NZ   FLAT    DELU    RIGU    SIMU    ISOR    SUMP

       Number       0       0       0   22659       0       0       0       0    1443    1086       0       0

 rms sigma      0.0000  0.0000  0.0000  0.0346  0.0000  0.0000  0.0000  0.0000  0.0453  0.0699  0.0000  0.0000

 rms deviation  0.0000  0.0000  0.0000  0.0174  0.0000  0.0000  0.0000  0.0000  0.0092  0.0117  0.0000  0.0000


 GooF = S =     1.077;     Restrained GooF =      0.805 for   25188 restraints

 Weight = 1 / [ sigma^2(Fo^2) + ( 0.0733 * P )^2 +  16.67 * P ]   where  P = ( Max ( Fo^2, 0 ) + 2 * Fc^2 ) / 3


     N      value        esd    shift/esd  parameter

     1     0.19087     0.00026     0.000    OSF
     2     0.88670     0.00448     0.000   FVAR  2 

 Mean shift/esd =   0.000  Maximum =     0.001 for   y  Ni1      

 Max. shift = 0.000 A for F7_13^b      Max. dU = 0.000 for F7_13^b 


 Least-squares cycle   4   Maximum vector length =  623   Memory required =     70 /  19051 /  4013146

 wR2 =  0.1766 before cycle   4 for   19930 data and   1838 /   1838 parameters


 Summary of restraints applied in cycle    4

               ANTIBUMP  DFIX    DANG SAME/SADI CHIV/Z CHIV/NZ   FLAT    DELU    RIGU    SIMU    ISOR    SUMP

       Number       0       0       0   22659       0       0       0       0    1443    1086       0       0

 rms sigma      0.0000  0.0000  0.0000  0.0346  0.0000  0.0000  0.0000  0.0000  0.0453  0.0699  0.0000  0.0000

 rms deviation  0.0000  0.0000  0.0000  0.0174  0.0000  0.0000  0.0000  0.0000  0.0092  0.0117  0.0000  0.0000


 GooF = S =     1.077;     Restrained GooF =      0.805 for   25188 restraints

 Weight = 1 / [ sigma^2(Fo^2) + ( 0.0733 * P )^2 +  16.67 * P ]   where  P = ( Max ( Fo^2, 0 ) + 2 * Fc^2 ) / 3


     N      value        esd    shift/esd  parameter

     1     0.19087     0.00026     0.000    OSF
     2     0.88670     0.00448     0.000   FVAR  2 

 Mean shift/esd =   0.000  Maximum =    -0.001 for   y  Ni2      

 Max. shift = 0.000 A for F8_11        Max. dU = 0.000 for F3_13^b 


 Least-squares cycle   5   Maximum vector length =  623   Memory required =     70 /  19051 /  4013146

 wR2 =  0.1766 before cycle   5 for   19930 data and   1838 /   1838 parameters


 Summary of restraints applied in cycle    5

               ANTIBUMP  DFIX    DANG SAME/SADI CHIV/Z CHIV/NZ   FLAT    DELU    RIGU    SIMU    ISOR    SUMP

       Number       0       0       0   22659       0       0       0       0    1443    1086       0       0

 rms sigma      0.0000  0.0000  0.0000  0.0346  0.0000  0.0000  0.0000  0.0000  0.0453  0.0699  0.0000  0.0000

 rms deviation  0.0000  0.0000  0.0000  0.0174  0.0000  0.0000  0.0000  0.0000  0.0092  0.0117  0.0000  0.0000


 GooF = S =     1.077;     Restrained GooF =      0.805 for   25188 restraints

 Weight = 1 / [ sigma^2(Fo^2) + ( 0.0733 * P )^2 +  16.67 * P ]   where  P = ( Max ( Fo^2, 0 ) + 2 * Fc^2 ) / 3


     N      value        esd    shift/esd  parameter

     1     0.19087     0.00026     0.000    OSF
     2     0.88670     0.00448     0.000   FVAR  2 

 Mean shift/esd =   0.000  Maximum =    -0.001 for   y  Al3      

 Max. shift = 0.000 A for F6_13^b      Max. dU = 0.000 for F9_13^b 


 Least-squares cycle   6   Maximum vector length =  623   Memory required =     70 /  19051 /  4013146

 wR2 =  0.1766 before cycle   6 for   19930 data and   1838 /   1838 parameters


 Summary of restraints applied in cycle    6

               ANTIBUMP  DFIX    DANG SAME/SADI CHIV/Z CHIV/NZ   FLAT    DELU    RIGU    SIMU    ISOR    SUMP

       Number       0       0       0   22659       0       0       0       0    1443    1086       0       0

 rms sigma      0.0000  0.0000  0.0000  0.0346  0.0000  0.0000  0.0000  0.0000  0.0453  0.0699  0.0000  0.0000

 rms deviation  0.0000  0.0000  0.0000  0.0174  0.0000  0.0000  0.0000  0.0000  0.0092  0.0117  0.0000  0.0000


 GooF = S =     1.077;     Restrained GooF =      0.805 for   25188 restraints

 Weight = 1 / [ sigma^2(Fo^2) + ( 0.0733 * P )^2 +  16.67 * P ]   where  P = ( Max ( Fo^2, 0 ) + 2 * Fc^2 ) / 3


     N      value        esd    shift/esd  parameter

     1     0.19087     0.00026     0.000    OSF
     2     0.88670     0.00448     0.000   FVAR  2 

 Mean shift/esd =   0.000  Maximum =    -0.001 for   y  Ni1      

 Max. shift = 0.000 A for F2_13^b      Max. dU = 0.000 for F3_13^b 


 Least-squares cycle   7   Maximum vector length =  623   Memory required =     70 /  19051 /  4013146

 wR2 =  0.1766 before cycle   7 for   19930 data and   1838 /   1838 parameters


 Summary of restraints applied in cycle    7

               ANTIBUMP  DFIX    DANG SAME/SADI CHIV/Z CHIV/NZ   FLAT    DELU    RIGU    SIMU    ISOR    SUMP

       Number       0       0       0   22659       0       0       0       0    1443    1086       0       0

 rms sigma      0.0000  0.0000  0.0000  0.0346  0.0000  0.0000  0.0000  0.0000  0.0453  0.0699  0.0000  0.0000

 rms deviation  0.0000  0.0000  0.0000  0.0174  0.0000  0.0000  0.0000  0.0000  0.0092  0.0117  0.0000  0.0000


 GooF = S =     1.077;     Restrained GooF =      0.805 for   25188 restraints

 Weight = 1 / [ sigma^2(Fo^2) + ( 0.0733 * P )^2 +  16.67 * P ]   where  P = ( Max ( Fo^2, 0 ) + 2 * Fc^2 ) / 3


     N      value        esd    shift/esd  parameter

     1     0.19087     0.00026     0.000    OSF
     2     0.88670     0.00448     0.000   FVAR  2 

 Mean shift/esd =   0.000  Maximum =    -0.001 for   y  Al3      

 Max. shift = 0.000 A for F9_13^b      Max. dU = 0.000 for F7_13^b 


 Least-squares cycle   8   Maximum vector length =  623   Memory required =     70 /  19051 /  4013146

 wR2 =  0.1766 before cycle   8 for   19930 data and   1838 /   1838 parameters


 Summary of restraints applied in cycle    8

               ANTIBUMP  DFIX    DANG SAME/SADI CHIV/Z CHIV/NZ   FLAT    DELU    RIGU    SIMU    ISOR    SUMP

       Number       0       0       0   22659       0       0       0       0    1443    1086       0       0

 rms sigma      0.0000  0.0000  0.0000  0.0346  0.0000  0.0000  0.0000  0.0000  0.0453  0.0699  0.0000  0.0000

 rms deviation  0.0000  0.0000  0.0000  0.0174  0.0000  0.0000  0.0000  0.0000  0.0092  0.0117  0.0000  0.0000


 GooF = S =     1.077;     Restrained GooF =      0.805 for   25188 restraints

 Weight = 1 / [ sigma^2(Fo^2) + ( 0.0733 * P )^2 +  16.67 * P ]   where  P = ( Max ( Fo^2, 0 ) + 2 * Fc^2 ) / 3


     N      value        esd    shift/esd  parameter

     1     0.19087     0.00026     0.000    OSF
     2     0.88670     0.00448     0.000   FVAR  2 

 Mean shift/esd =   0.000  Maximum =    -0.001 for   y  Ni2      

 Max. shift = 0.000 A for C2_13^b      Max. dU = 0.000 for F8_13^b 


 Least-squares cycle   9   Maximum vector length =  623   Memory required =     70 /  19051 /  4013146

 wR2 =  0.1766 before cycle   9 for   19930 data and   1838 /   1838 parameters


 Summary of restraints applied in cycle    9

               ANTIBUMP  DFIX    DANG SAME/SADI CHIV/Z CHIV/NZ   FLAT    DELU    RIGU    SIMU    ISOR    SUMP

       Number       0       0       0   22659       0       0       0       0    1443    1086       0       0

 rms sigma      0.0000  0.0000  0.0000  0.0346  0.0000  0.0000  0.0000  0.0000  0.0453  0.0699  0.0000  0.0000

 rms deviation  0.0000  0.0000  0.0000  0.0174  0.0000  0.0000  0.0000  0.0000  0.0092  0.0117  0.0000  0.0000


 GooF = S =     1.077;     Restrained GooF =      0.805 for   25188 restraints

 Weight = 1 / [ sigma^2(Fo^2) + ( 0.0733 * P )^2 +  16.67 * P ]   where  P = ( Max ( Fo^2, 0 ) + 2 * Fc^2 ) / 3


     N      value        esd    shift/esd  parameter

     1     0.19087     0.00026     0.000    OSF
     2     0.88670     0.00448     0.000   FVAR  2 

 Mean shift/esd =   0.000  Maximum =     0.001 for   y  Ni1      

 Max. shift = 0.000 A for F2_8        Max. dU = 0.000 for F3_13^b  


 Least-squares cycle  10   Maximum vector length =  623   Memory required =     70 /  19051 /  4013146

 wR2 =  0.1766 before cycle  10 for   19930 data and   1838 /   1838 parameters


 Summary of restraints applied in cycle   10

               ANTIBUMP  DFIX    DANG SAME/SADI CHIV/Z CHIV/NZ   FLAT    DELU    RIGU    SIMU    ISOR    SUMP

       Number       0       0       0   22659       0       0       0       0    1443    1086       0       0

 rms sigma      0.0000  0.0000  0.0000  0.0346  0.0000  0.0000  0.0000  0.0000  0.0453  0.0699  0.0000  0.0000

 rms deviation  0.0000  0.0000  0.0000  0.0174  0.0000  0.0000  0.0000  0.0000  0.0092  0.0117  0.0000  0.0000


 GooF = S =     1.077;     Restrained GooF =      0.805 for   25188 restraints

 Weight = 1 / [ sigma^2(Fo^2) + ( 0.0733 * P )^2 +  16.67 * P ]   where  P = ( Max ( Fo^2, 0 ) + 2 * Fc^2 ) / 3


     N      value        esd    shift/esd  parameter

     1     0.19087     0.00026     0.000    OSF
     2     0.88670     0.00448     0.000   FVAR  2 

 Mean shift/esd =   0.000  Maximum =     0.001 for   y  Ni2      

 Max. shift = 0.000 A for C2_13^b      Max. dU = 0.000 for F8_13^b 


 Largest correlation matrix elements

    -0.845 z F2_13^b / z F2_1^a             -0.738 y O1_13^b / y O1_1^a             -0.681 y F6_13^b / U22 F8_1^a
    -0.842 z O1_13^b / z O1_1^a             -0.734 x F6_13^b / x F8_1^a             -0.679 z F6_13^b / U23 F8_1^a
    -0.817 z F6_13^b / z F8_1^a             -0.729 y F2_13^b / U22 F2_1^a           -0.679 z F3_13^b / U33 F3_1^a
    -0.792 U12 F3_13^b / U11 F3_13^b        -0.727 U12 F4_13^b / U13 F4_13^b         0.674 x F6_13^b / x C1_13^b
    -0.777 x O1_13^b / x O1_1^a             -0.708 y F2_13^b / y F2_1^a              0.672 z F5_13^b / z C3_13^b
    -0.757 z F8_13^b / z F6_1^a             -0.699 U12 F8_13^b / U22 F8_13^b        -0.672 z F2_13^b / U23 F2_1^a
    -0.754 U23 F4_13^b / U22 F4_13^b         0.696 U33 F5_13^b / U33 C3_13^b         0.671 U33 F5_13^b / U33 F4_13^b
    -0.741 x F2_13^b / x F2_1^a             -0.694 U13 F3_13^b / U23 F3_13^b         0.670 y F1_13^b / y C2_13^b



  p-1-firsttry_a.res in P-1                                                  

 ATOM           x        y        z         sof        U11      U22      U33      U23      U13      U12       Ueq

 Ni1        -0.15004  0.75016  0.30910    1.00000    0.02490  0.04002  0.02634 -0.00993 -0.00215 -0.00470   0.03045
   0.00094   0.00006  0.00003  0.00003    0.00000    0.00032  0.00037  0.00032  0.00027  0.00024  0.00027   0.00015

 O1         -0.03265  0.66913  0.43199    1.00000    0.03396  0.06367  0.03116 -0.00066 -0.00265 -0.00818   0.04577
   0.00620   0.00036  0.00022  0.00017    0.00000    0.00207  0.00267  0.00210  0.00190  0.00164  0.00187   0.00098

 C1         -0.07613  0.70025  0.38721    1.00000    0.02596  0.03966  0.03493 -0.00998  0.00540 -0.00934   0.03329
   0.00785   0.00047  0.00028  0.00023    0.00000    0.00250  0.00288  0.00289  0.00234  0.00212  0.00216   0.00111

 Al1         1.01725  0.98158  0.57785    1.00000    0.01425  0.02479  0.01675 -0.00673  0.00041 -0.00624   0.01812
   0.00180   0.00011  0.00007  0.00005    0.00000    0.00059  0.00066  0.00058  0.00050  0.00046  0.00049   0.00026

 F1          1.00000  1.00000  0.50000    0.50000    0.01869  0.03147  0.01663 -0.00784 -0.00034 -0.00721   0.02175
   0.00000   0.00000  0.00000  0.00000    0.00000    0.00171  0.00195  0.00166  0.00144  0.00131  0.00145   0.00073

 Ni2         1.36733  0.73960  0.79637    1.00000    0.04802  0.04278  0.05022 -0.01744  0.01878 -0.01477   0.04540
   0.00124   0.00008  0.00004  0.00004    0.00000    0.00045  0.00042  0.00046  0.00035  0.00035  0.00035   0.00020

 O2          0.06966  0.82170  0.25545    1.00000    0.04046  0.05458  0.03690 -0.00580  0.00370 -0.01528   0.04477
   0.00615   0.00038  0.00022  0.00017    0.00000    0.00224  0.00248  0.00211  0.00183  0.00173  0.00195   0.00095

 C2         -0.00999  0.79568  0.27516    1.00000    0.03302  0.03874  0.02924 -0.00730 -0.00439 -0.00103   0.03480
   0.00803   0.00051  0.00028  0.00023    0.00000    0.00281  0.00289  0.00261  0.00221  0.00215  0.00232   0.00114

 F2          0.50000  0.50000  0.50000    0.50000    0.01975  0.02762  0.01537 -0.00835 -0.00009 -0.00790   0.02002
   0.00000   0.00000  0.00000  0.00000    0.00000    0.00171  0.00185  0.00161  0.00139  0.00129  0.00142   0.00070

 Al2         0.50755  0.52140  0.56776    1.00000    0.01605  0.02304  0.01616 -0.00661 -0.00030 -0.00624   0.01789
   0.00179   0.00012  0.00007  0.00005    0.00000    0.00060  0.00065  0.00058  0.00049  0.00046  0.00049   0.00026

 Al3         0.49250  1.01698  0.92217    1.00000    0.01275  0.01979  0.01396 -0.00554 -0.00049 -0.00357   0.01528
   0.00173   0.00011  0.00006  0.00005    0.00000    0.00056  0.00061  0.00055  0.00046  0.00043  0.00046   0.00024

 O3         -0.41014  0.80663  0.34436    1.00000    0.03397  0.10801  0.03816 -0.02390 -0.00223  0.01016   0.06205
   0.00738   0.00041  0.00029  0.00019    0.00000    0.00237  0.00403  0.00234  0.00246  0.00182  0.00240   0.00133

 C3         -0.31602  0.78486  0.33096    1.00000    0.03553  0.06500  0.02299 -0.01232 -0.00738 -0.00462   0.04172
   0.00825   0.00055  0.00033  0.00023    0.00000    0.00311  0.00387  0.00253  0.00250  0.00217  0.00273   0.00134

 F3          0.50000  1.00000  1.00000    0.50000    0.02005  0.02765  0.01233 -0.00701  0.00224 -0.00750   0.01936
   0.00000   0.00000  0.00000  0.00000    0.00000    0.00170  0.00184  0.00155  0.00135  0.00126  0.00141   0.00069

 C8          1.43221  0.68087  0.87294    1.00000    0.03311  0.06058  0.05639 -0.03023  0.00657 -0.00607   0.04744
   0.00943   0.00056  0.00035  0.00031    0.00000    0.00306  0.00398  0.00399  0.00333  0.00278  0.00278   0.00144

 O8          1.46993  0.64599  0.91754    1.00000    0.03930  0.08446  0.06097 -0.03303 -0.00220 -0.00084   0.06015
   0.00710   0.00042  0.00028  0.00023    0.00000    0.00245  0.00352  0.00309  0.00275  0.00218  0.00232   0.00122

 C7          1.32470  0.67319  0.75873    1.00000    0.05499  0.04954  0.03622 -0.00528  0.01163 -0.00825   0.04856
   0.01098   0.00063  0.00034  0.00027    0.00000    0.00382  0.00364  0.00316  0.00281  0.00271  0.00299   0.00147

 O7          1.30036  0.63682  0.73618    1.00000    0.07399  0.06355  0.04306 -0.02189  0.00472 -0.01945   0.05795
   0.00716   0.00048  0.00025  0.00020    0.00000    0.00328  0.00300  0.00247  0.00228  0.00221  0.00251   0.00118

 C6          1.23782  0.80138  0.81968    1.00000    0.06698  0.03429  0.03988 -0.01560  0.01355 -0.00957   0.04594
   0.00963   0.00066  0.00030  0.00026    0.00000    0.00417  0.00306  0.00321  0.00254  0.00286  0.00294   0.00142

 O6          1.15921  0.83643  0.83218    1.00000    0.07542  0.04602  0.06341 -0.01635  0.00822  0.00113   0.06286
   0.00797   0.00050  0.00024  0.00022    0.00000    0.00340  0.00264  0.00308  0.00232  0.00255  0.00245   0.00126

 C5          1.50471  0.78029  0.75321    1.00000    0.04759  0.03913  0.03735 -0.01834  0.00260 -0.00837   0.03970
   0.00833   0.00058  0.00029  0.00025    0.00000    0.00336  0.00304  0.00296  0.00243  0.00252  0.00260   0.00125

 O5          1.58517  0.80076  0.72942    1.00000    0.05885  0.05899  0.06533 -0.02579  0.02484 -0.03100   0.05704
   0.00693   0.00045  0.00024  0.00021    0.00000    0.00284  0.00280  0.00296  0.00232  0.00237  0.00235   0.00117

 F4          1.00000  0.50000  1.00000    0.50000    0.01903  0.02443  0.01830 -0.00872 -0.00297 -0.00403   0.02001
   0.00000   0.00000  0.00000  0.00000    0.00000    0.00170  0.00179  0.00166  0.00139  0.00131  0.00139   0.00070

 O4         -0.20795  0.68957  0.21037    1.00000    0.06373  0.05374  0.04065 -0.02212 -0.01053 -0.00280   0.05172
   0.00625   0.00044  0.00022  0.00018    0.00000    0.00286  0.00260  0.00231  0.00204  0.00200  0.00214   0.00107

 C4         -0.18985  0.71381  0.24529    1.00000    0.03588  0.03421  0.03164 -0.00500 -0.00246  0.00316   0.03594
   0.00859   0.00051  0.00027  0.00023    0.00000    0.00285  0.00280  0.00273  0.00227  0.00216  0.00222   0.00117

 Al4         0.99357  0.46434  0.93994    1.00000    0.01338  0.02287  0.01762 -0.00829 -0.00107 -0.00481   0.01724
   0.00175   0.00011  0.00006  0.00005    0.00000    0.00058  0.00064  0.00059  0.00049  0.00045  0.00048   0.00025

 O1_1^a      1.17514  0.97066  0.59650    0.88670    0.01718  0.05667  0.02704 -0.02169 -0.00109 -0.00832   0.03136
   0.00718   0.00052  0.00033  0.00030    0.00448    0.00164  0.00296  0.00173  0.00188  0.00132  0.00179   0.00103

 C1_1^a      1.27294  0.99681  0.61479    0.88670    0.02199  0.05544  0.02350 -0.01228 -0.00402 -0.01419   0.03260
   0.00857   0.00054  0.00030  0.00023    0.00448    0.00259  0.00327  0.00250  0.00233  0.00204  0.00232   0.00122

 C2_1^a      1.26109  0.99237  0.68125    0.88670    0.02868  0.06034  0.02733 -0.01602 -0.00034 -0.01597   0.03712
   0.00783   0.00051  0.00032  0.00023    0.00448    0.00267  0.00355  0.00261  0.00249  0.00206  0.00250   0.00128

 F1_1^a      1.29168  0.92638  0.71534    0.88670    0.05592  0.06442  0.02925  0.00204 -0.01008 -0.02275   0.05176
   0.00559   0.00039  0.00021  0.00016    0.00448    0.00250  0.00245  0.00188  0.00172  0.00171  0.00198   0.00110

 F2_1^a      1.33676  1.02833  0.69934    0.88670    0.04178  0.07929  0.03800 -0.02625 -0.00628 -0.02620   0.04921
   0.00663   0.00052  0.00032  0.00029    0.00448    0.00198  0.00383  0.00184  0.00236  0.00147  0.00215   0.00131

 F3_1^a      1.14238  1.01546  0.69289    0.88670    0.03365  0.08516  0.03205 -0.02669  0.00360 -0.01986   0.04711
   0.00988   0.00047  0.00029  0.00023    0.00448    0.00207  0.00359  0.00267  0.00232  0.00199  0.00227   0.00124

 C3_1^a      1.27230  1.07252  0.57840    0.88670    0.04059  0.05802  0.02993 -0.01135  0.00099 -0.02111   0.04170
   0.00910   0.00059  0.00033  0.00026    0.00448    0.00344  0.00356  0.00291  0.00267  0.00255  0.00276   0.00144

 F4_1^a      1.23945  1.08159  0.52205    0.88670    0.07429  0.06909  0.02906 -0.00007 -0.00666 -0.01915   0.05971
   0.00780   0.00054  0.00027  0.00018    0.00448    0.00363  0.00324  0.00208  0.00198  0.00221  0.00263   0.00130

 F5_1^a      1.18948  1.11571  0.59839    0.88670    0.04280  0.05225  0.05415 -0.01673 -0.00819 -0.01393   0.04878
   0.00534   0.00035  0.00020  0.00018    0.00448    0.00211  0.00228  0.00251  0.00185  0.00174  0.00173   0.00101

 F6_1^a      1.38742  1.08996  0.58098    0.88670    0.04428  0.07320  0.07033 -0.00345  0.00236 -0.03331   0.06368
   0.00904   0.00065  0.00035  0.00036    0.00448    0.00314  0.00378  0.00405  0.00296  0.00258  0.00298   0.00208

 C4_1^a      1.39867  0.95104  0.60656    0.88670    0.01964  0.06861  0.03708 -0.01858 -0.00576 -0.01180   0.04059
   0.00883   0.00052  0.00035  0.00026    0.00448    0.00267  0.00390  0.00317  0.00308  0.00227  0.00263   0.00142

 F7_1^a      1.42789  0.96657  0.55032    0.88670    0.02732  0.10214  0.04155 -0.02696  0.00697 -0.01786   0.05495
   0.00576   0.00033  0.00025  0.00016    0.00448    0.00188  0.00356  0.00207  0.00221  0.00153  0.00203   0.00119

 F8_1^a      1.49547  0.95843  0.63950    0.88670    0.02349  0.08578  0.06069 -0.02428 -0.01859 -0.01025   0.05589
   0.00783   0.00048  0.00030  0.00032    0.00448    0.00164  0.00397  0.00246  0.00285  0.00155  0.00213   0.00137

 F9_1^a      1.38755  0.88475  0.62440    0.88670    0.03329  0.06655  0.05179 -0.01827 -0.01059 -0.00488   0.05073
   0.00632   0.00041  0.00023  0.00021    0.00448    0.00216  0.00272  0.00260  0.00216  0.00202  0.00200   0.00109

 O1_2        0.93244  1.04924  0.59582    1.00000    0.03103  0.03625  0.03225 -0.01844 -0.00651  0.00255   0.03230
   0.00488   0.00031  0.00017  0.00015    0.00000    0.00180  0.00189  0.00182  0.00151  0.00141  0.00144   0.00076

 C1_2        0.82713  1.09793  0.58845    1.00000    0.02600  0.03090  0.03421 -0.01208  0.00323 -0.00381   0.02994
   0.00673   0.00042  0.00023  0.00020    0.00000    0.00229  0.00237  0.00242  0.00198  0.00183  0.00182   0.00098

 C2_2        0.76677  1.09126  0.64914    1.00000    0.04847  0.04214  0.03894 -0.01402  0.01198 -0.01344   0.04207
   0.00816   0.00052  0.00027  0.00023    0.00000    0.00318  0.00292  0.00278  0.00239  0.00226  0.00237   0.00121

 F1_2        0.69967  1.04049  0.66297    1.00000    0.07800  0.07598  0.05086 -0.01167  0.02254 -0.04795   0.06577
   0.00587   0.00040  0.00021  0.00017    0.00000    0.00273  0.00258  0.00218  0.00193  0.00194  0.00223   0.00110

 F2_2        0.68840  1.14908  0.64945    1.00000    0.06414  0.06399  0.05645 -0.02892  0.02788  0.00205   0.06064
   0.00642   0.00037  0.00019  0.00017    0.00000    0.00240  0.00231  0.00226  0.00188  0.00184  0.00184   0.00100

 F3_2        0.85555  1.07834  0.69253    1.00000    0.07556  0.05427  0.02882 -0.01571  0.00944 -0.01795   0.05132
   0.00510   0.00036  0.00018  0.00013    0.00000    0.00244  0.00208  0.00163  0.00148  0.00153  0.00179   0.00086

 C3_2        0.86834  1.16947  0.56528    1.00000    0.03401  0.03721  0.03047 -0.01283  0.00255 -0.01031   0.03278
   0.00692   0.00046  0.00025  0.00021    0.00000    0.00256  0.00258  0.00245  0.00206  0.00190  0.00201   0.00103

 F4_2        0.95029  1.17010  0.52275    1.00000    0.04206  0.07179  0.02980 -0.01328  0.00755 -0.02668   0.04627
   0.00466   0.00030  0.00019  0.00013    0.00000    0.00180  0.00229  0.00158  0.00152  0.00131  0.00164   0.00080

 F5_2        0.92676  1.18478  0.60838    1.00000    0.05400  0.04336  0.04178 -0.01627 -0.00550 -0.01875   0.04434
   0.00431   0.00032  0.00016  0.00014    0.00000    0.00200  0.00181  0.00174  0.00144  0.00146  0.00153   0.00077

 F6_2        0.77069  1.21933  0.54352    1.00000    0.05061  0.03417  0.05737 -0.00930 -0.01052 -0.00292   0.04872
   0.00503   0.00032  0.00016  0.00016    0.00000    0.00197  0.00169  0.00210  0.00150  0.00159  0.00143   0.00082

 C4_2        0.72894  1.09005  0.54353    1.00000    0.02321  0.03618  0.04252 -0.01766 -0.00094 -0.00182   0.03302
   0.00692   0.00043  0.00025  0.00022    0.00000    0.00227  0.00258  0.00265  0.00220  0.00194  0.00193   0.00104

 F7_2        0.76630  1.11274  0.48837    1.00000    0.03703  0.05312  0.03335 -0.01592 -0.00702 -0.00544   0.04070
   0.00437   0.00029  0.00017  0.00013    0.00000    0.00167  0.00191  0.00157  0.00139  0.00126  0.00141   0.00071

 F8_2        0.61388  1.12464  0.54614    1.00000    0.01954  0.05416  0.08223 -0.02360  0.00108 -0.00222   0.05166
   0.00521   0.00027  0.00018  0.00017    0.00000    0.00147  0.00205  0.00258  0.00186  0.00150  0.00137   0.00088

 F9_2        0.72133  1.02411  0.55396    1.00000    0.05107  0.03654  0.06490 -0.01479 -0.01742 -0.01334   0.05012
   0.00459   0.00033  0.00016  0.00016    0.00000    0.00202  0.00170  0.00222  0.00156  0.00167  0.00148   0.00086

 O1_3        0.96328  0.90530  0.59840    1.00000    0.03989  0.02833  0.02497 -0.00471  0.00286 -0.01539   0.03062
   0.00487   0.00033  0.00016  0.00014    0.00000    0.00197  0.00172  0.00165  0.00134  0.00141  0.00148   0.00074

 C1_3        0.95339  0.84813  0.64300    1.00000    0.03455  0.02592  0.02411 -0.00443  0.00818 -0.00935   0.02834
   0.00673   0.00043  0.00022  0.00019    0.00000    0.00242  0.00227  0.00220  0.00175  0.00182  0.00186   0.00096

 C2_3        0.91662  0.86688  0.70081    1.00000    0.05394  0.04349  0.03393 -0.01658  0.01458 -0.02112   0.04120
   0.00776   0.00053  0.00027  0.00022    0.00000    0.00314  0.00297  0.00261  0.00220  0.00234  0.00243   0.00121

 F1_3        0.79342  0.89462  0.69698    1.00000    0.05348  0.07622  0.06733 -0.03718  0.03166 -0.01592   0.06170
   0.00607   0.00035  0.00021  0.00018    0.00000    0.00213  0.00261  0.00249  0.00207  0.00185  0.00187   0.00100

 F2_3        0.93772  0.81349  0.74920    1.00000    0.10584  0.05014  0.02689 -0.00915  0.01614 -0.03700   0.05868
   0.00545   0.00041  0.00018  0.00014    0.00000    0.00311  0.00201  0.00163  0.00143  0.00175  0.00203   0.00102

 F3_3        0.98189  0.91393  0.70799    1.00000    0.07364  0.04571  0.03728 -0.01785  0.00462 -0.02829   0.04889
   0.00457   0.00035  0.00017  0.00014    0.00000    0.00237  0.00188  0.00174  0.00147  0.00159  0.00173   0.00084

 C3_3        1.08114  0.79726  0.65515    1.00000    0.04326  0.03999  0.03660 -0.00740  0.00461 -0.00762   0.04070
   0.00812   0.00050  0.00026  0.00023    0.00000    0.00294  0.00280  0.00276  0.00222  0.00218  0.00225   0.00118

 F4_3        1.13486  0.79406  0.60604    1.00000    0.04662  0.05683  0.05531 -0.01931  0.01837 -0.00054   0.05328
   0.00585   0.00033  0.00018  0.00016    0.00000    0.00200  0.00215  0.00208  0.00171  0.00162  0.00163   0.00087

 F5_3        1.16441  0.81885  0.68618    1.00000    0.04651  0.06085  0.05328 -0.00240 -0.01249 -0.01368   0.05606
   0.00521   0.00033  0.00019  0.00016    0.00000    0.00202  0.00225  0.00211  0.00173  0.00162  0.00170   0.00093

 F6_3        1.06773  0.73384  0.68688    1.00000    0.06578  0.03206  0.06461  0.00240  0.00027 -0.00201   0.05841
   0.00609   0.00037  0.00016  0.00017    0.00000    0.00243  0.00173  0.00238  0.00160  0.00187  0.00160   0.00097

 C4_3        0.84877  0.81371  0.62370    1.00000    0.05078  0.04009  0.03517 -0.01214  0.00694 -0.02112   0.04023
   0.00747   0.00052  0.00027  0.00022    0.00000    0.00308  0.00287  0.00271  0.00216  0.00226  0.00233   0.00118

 F7_3        0.89275  0.78626  0.58105    1.00000    0.08358  0.05634  0.04273 -0.02706  0.01809 -0.04193   0.05474
   0.00486   0.00038  0.00018  0.00015    0.00000    0.00264  0.00212  0.00187  0.00163  0.00175  0.00195   0.00094

 F8_3        0.81592  0.76394  0.66863    1.00000    0.06179  0.04645  0.04397 -0.00879  0.01312 -0.03406   0.04884
   0.00496   0.00034  0.00017  0.00014    0.00000    0.00219  0.00187  0.00183  0.00147  0.00157  0.00167   0.00084

 F9_3        0.74534  0.85852  0.60229    1.00000    0.04065  0.06166  0.05603 -0.00854 -0.00516 -0.02382   0.05288
   0.00500   0.00031  0.00018  0.00016    0.00000    0.00184  0.00220  0.00213  0.00171  0.00155  0.00161   0.00088

 O1_4        0.36390  0.51430  0.59867    1.00000    0.01616  0.03249  0.02015 -0.00790  0.00141 -0.00753   0.02250
   0.00432   0.00027  0.00016  0.00013    0.00000    0.00142  0.00171  0.00149  0.00128  0.00114  0.00125   0.00064

 C1_4        0.23443  0.52861  0.59433    1.00000    0.01530  0.03758  0.01736 -0.00856  0.00132 -0.00988   0.02268
   0.00585   0.00037  0.00022  0.00017    0.00000    0.00191  0.00235  0.00194  0.00173  0.00152  0.00172   0.00087

 C2_4        0.18408  0.50012  0.65702    1.00000    0.02298  0.04855  0.02287 -0.00968  0.00387 -0.01010   0.03117
   0.00687   0.00042  0.00026  0.00019    0.00000    0.00222  0.00277  0.00220  0.00204  0.00175  0.00203   0.00102

 F1_4        0.19296  0.43169  0.67218    1.00000    0.03618  0.04699  0.03328  0.00124  0.00746 -0.01689   0.04048
   0.00472   0.00028  0.00016  0.00013    0.00000    0.00165  0.00175  0.00160  0.00134  0.00127  0.00138   0.00072

 F2_4        0.06223  0.52663  0.65957    1.00000    0.02268  0.07120  0.03322 -0.01412  0.01099 -0.00558   0.04291
   0.00491   0.00026  0.00018  0.00013    0.00000    0.00142  0.00222  0.00161  0.00151  0.00118  0.00139   0.00076

 F3_4        0.25049  0.51474  0.69794    1.00000    0.03604  0.06835  0.01767 -0.01650  0.00224 -0.01096   0.03960
   0.00425   0.00028  0.00017  0.00012    0.00000    0.00162  0.00213  0.00133  0.00135  0.00114  0.00148   0.00072

 C3_4        0.18849  0.60711  0.57119    1.00000    0.02178  0.03783  0.02502 -0.00932 -0.00127 -0.00342   0.02836
   0.00665   0.00041  0.00024  0.00019    0.00000    0.00214  0.00250  0.00223  0.00188  0.00170  0.00187   0.00096

 F4_4        0.25657  0.63515  0.52612    1.00000    0.03273  0.03696  0.03242  0.00066  0.00043 -0.00813   0.03609
   0.00450   0.00027  0.00015  0.00012    0.00000    0.00154  0.00159  0.00151  0.00123  0.00118  0.00125   0.00066

 F5_4        0.20068  0.63678  0.61351    1.00000    0.03766  0.04175  0.04334 -0.02236 -0.00431 -0.00064   0.03948
   0.00429   0.00029  0.00016  0.00013    0.00000    0.00168  0.00172  0.00172  0.00141  0.00133  0.00135   0.00070

 F6_4        0.06602  0.62267  0.55196    1.00000    0.02011  0.05162  0.04631 -0.00937 -0.00863  0.00321   0.04146
   0.00464   0.00026  0.00016  0.00014    0.00000    0.00139  0.00190  0.00182  0.00148  0.00123  0.00128   0.00074

 C4_4        0.18451  0.49258  0.55183    1.00000    0.01991  0.04538  0.02692 -0.01363  0.00542 -0.01421   0.02909
   0.00643   0.00041  0.00025  0.00019    0.00000    0.00213  0.00269  0.00223  0.00201  0.00173  0.00194   0.00098

 F7_4        0.20131  0.52642  0.49571    1.00000    0.03599  0.06113  0.02418 -0.01604  0.00171 -0.01706   0.03865
   0.00418   0.00028  0.00017  0.00012    0.00000    0.00162  0.00200  0.00140  0.00133  0.00117  0.00144   0.00070

 F8_4        0.06163  0.48842  0.55753    1.00000    0.02034  0.06760  0.04306 -0.02213  0.00108 -0.02141   0.04078
   0.00409   0.00026  0.00017  0.00013    0.00000    0.00138  0.00213  0.00173  0.00155  0.00120  0.00138   0.00074

 F9_4        0.24819  0.42903  0.56254    1.00000    0.04082  0.04085  0.04751 -0.02276 -0.00121 -0.01223   0.04033
   0.00428   0.00029  0.00016  0.00014    0.00000    0.00171  0.00168  0.00182  0.00142  0.00138  0.00135   0.00070

 O1_5        0.54977  0.60138  0.54329    1.00000    0.02137  0.02549  0.02036 -0.00747 -0.00256 -0.00866   0.02169
   0.00412   0.00028  0.00015  0.00013    0.00000    0.00152  0.00158  0.00148  0.00123  0.00117  0.00124   0.00063

 C1_5        0.60141  0.64861  0.56158    1.00000    0.02215  0.02540  0.02484 -0.00987 -0.00235 -0.00921   0.02298
   0.00584   0.00038  0.00021  0.00018    0.00000    0.00209  0.00218  0.00210  0.00169  0.00162  0.00169   0.00087

 C2_5        0.73913  0.61866  0.58859    1.00000    0.02579  0.03022  0.04390 -0.01280 -0.00872 -0.01170   0.03206
   0.00637   0.00043  0.00024  0.00022    0.00000    0.00233  0.00246  0.00267  0.00201  0.00195  0.00189   0.00104

 F1_5        0.73564  0.57820  0.64387    1.00000    0.05277  0.03830  0.04079 -0.00586 -0.02447 -0.01118   0.04472
   0.00424   0.00032  0.00016  0.00013    0.00000    0.00196  0.00170  0.00169  0.00135  0.00145  0.00146   0.00079

 F2_5        0.80398  0.66811  0.59058    1.00000    0.02721  0.03748  0.06431 -0.02216 -0.00729 -0.01326   0.04052
   0.00404   0.00027  0.00015  0.00015    0.00000    0.00151  0.00164  0.00208  0.00149  0.00138  0.00126   0.00073

 F3_5        0.80152  0.58184  0.55697    1.00000    0.02040  0.04288  0.06057 -0.02713 -0.00566 -0.00190   0.03909
   0.00418   0.00026  0.00016  0.00014    0.00000    0.00139  0.00173  0.00198  0.00151  0.00128  0.00122   0.00071

 C3_5        0.60561  0.71169  0.50658    1.00000    0.03132  0.02904  0.03396 -0.00769 -0.00123 -0.00875   0.03134
   0.00687   0.00044  0.00023  0.00021    0.00000    0.00244  0.00240  0.00249  0.00192  0.00186  0.00196   0.00101

 F4_5        0.49635  0.72815  0.47392    1.00000    0.04220  0.02848  0.04121 -0.00457 -0.01557 -0.00194   0.03893
   0.00428   0.00029  0.00014  0.00013    0.00000    0.00169  0.00150  0.00170  0.00127  0.00133  0.00127   0.00070

 F5_5        0.69791  0.69812  0.47139    1.00000    0.04615  0.04281  0.03823 -0.00820  0.01761 -0.01572   0.04227
   0.00498   0.00030  0.00016  0.00013    0.00000    0.00182  0.00176  0.00170  0.00138  0.00138  0.00144   0.00074

 F6_5        0.62336  0.76712  0.52175    1.00000    0.04732  0.02639  0.05317 -0.00988 -0.00426 -0.01219   0.04197
   0.00445   0.00031  0.00014  0.00014    0.00000    0.00186  0.00149  0.00194  0.00135  0.00147  0.00133   0.00074

 C4_5        0.51873  0.67209  0.60853    1.00000    0.03638  0.04114  0.03978 -0.02168  0.00199 -0.01619   0.03588
   0.00680   0.00047  0.00026  0.00022    0.00000    0.00264  0.00280  0.00274  0.00217  0.00206  0.00213   0.00110

 F7_5        0.41187  0.71454  0.58362    1.00000    0.02720  0.05232  0.06936 -0.03362  0.00802 -0.00438   0.04652
   0.00481   0.00028  0.00017  0.00016    0.00000    0.00156  0.00196  0.00226  0.00171  0.00144  0.00137   0.00079

 F8_5        0.57957  0.70409  0.63913    1.00000    0.05162  0.05700  0.04583 -0.03597  0.00755 -0.02159   0.04557
   0.00425   0.00031  0.00017  0.00014    0.00000    0.00196  0.00204  0.00185  0.00161  0.00148  0.00162   0.00080

 F9_5        0.48445  0.61742  0.64817    1.00000    0.05268  0.05619  0.03710 -0.02189  0.01832 -0.02719   0.04485
   0.00471   0.00032  0.00017  0.00013    0.00000    0.00198  0.00198  0.00169  0.00147  0.00143  0.00161   0.00078

 O1_6        0.62600  0.46401  0.61244    1.00000    0.02130  0.02501  0.01724 -0.00434 -0.00101 -0.00497   0.02145
   0.00433   0.00028  0.00015  0.00012    0.00000    0.00151  0.00156  0.00143  0.00118  0.00114  0.00122   0.00062

 C1_6        0.65926  0.40536  0.65812    1.00000    0.02341  0.02400  0.01934 -0.00582  0.00020 -0.00509   0.02224
   0.00600   0.00038  0.00021  0.00018    0.00000    0.00210  0.00212  0.00199  0.00161  0.00158  0.00170   0.00086

 C2_6        0.79869  0.40303  0.67947    1.00000    0.02344  0.02967  0.02535 -0.00582 -0.00333 -0.00041   0.02709
   0.00658   0.00041  0.00023  0.00019    0.00000    0.00219  0.00234  0.00223  0.00179  0.00169  0.00180   0.00094

 F1_6        0.80403  0.44341  0.71362    1.00000    0.03598  0.04383  0.03757 -0.01778 -0.01370 -0.00587   0.03793
   0.00395   0.00028  0.00015  0.00013    0.00000    0.00162  0.00172  0.00161  0.00134  0.00127  0.00133   0.00069

 F2_6        0.85305  0.33907  0.71111    1.00000    0.03409  0.03595  0.03982 -0.00322 -0.00936  0.00591   0.03965
   0.00470   0.00028  0.00015  0.00013    0.00000    0.00161  0.00159  0.00169  0.00130  0.00129  0.00127   0.00071

 F3_6        0.87056  0.42301  0.63383    1.00000    0.02096  0.04660  0.03789 -0.00611  0.00174 -0.00479   0.03660
   0.00452   0.00025  0.00016  0.00013    0.00000    0.00138  0.00176  0.00159  0.00132  0.00114  0.00123   0.00067

 C3_6        0.65280  0.34217  0.63620    1.00000    0.03838  0.03088  0.02657 -0.00937  0.00334 -0.01167   0.03107
   0.00679   0.00046  0.00023  0.00020    0.00000    0.00261  0.00240  0.00235  0.00186  0.00186  0.00206   0.00101

 F4_6        0.54566  0.35236  0.60334    1.00000    0.05274  0.05032  0.04130 -0.02150 -0.00709 -0.02322   0.04469
   0.00411   0.00031  0.00017  0.00014    0.00000    0.00193  0.00192  0.00175  0.00148  0.00142  0.00156   0.00078

 F5_6        0.74921  0.33284  0.60143    1.00000    0.05792  0.03760  0.03483 -0.01879  0.01515 -0.01029   0.04146
   0.00479   0.00031  0.00016  0.00013    0.00000    0.00198  0.00168  0.00162  0.00134  0.00140  0.00146   0.00073

 F6_6        0.65714  0.28431  0.67964    1.00000    0.05751  0.02561  0.04314 -0.00669  0.00838 -0.01318   0.04211
   0.00486   0.00032  0.00014  0.00014    0.00000    0.00202  0.00148  0.00176  0.00127  0.00146  0.00138   0.00074

 C4_6        0.57132  0.40426  0.71118    1.00000    0.02973  0.03156  0.02128 -0.00343 -0.00141 -0.00412   0.02856
   0.00679   0.00043  0.00023  0.00019    0.00000    0.00236  0.00239  0.00212  0.00179  0.00174  0.00190   0.00096

 F7_6        0.46174  0.38494  0.70130    1.00000    0.02923  0.04273  0.03366 -0.00203  0.00472 -0.01175   0.03652
   0.00444   0.00026  0.00015  0.00013    0.00000    0.00149  0.00169  0.00156  0.00129  0.00118  0.00127   0.00067

 F8_6        0.62469  0.36033  0.76196    1.00000    0.04396  0.04305  0.01718 -0.00014 -0.00051  0.00036   0.03747
   0.00463   0.00029  0.00015  0.00011    0.00000    0.00173  0.00170  0.00131  0.00118  0.00116  0.00135   0.00069

 F9_6        0.54412  0.46608  0.71847    1.00000    0.03681  0.03837  0.02759 -0.01335  0.00435  0.00023   0.03423
   0.00435   0.00027  0.00015  0.00012    0.00000    0.00160  0.00158  0.00145  0.00122  0.00119  0.00126   0.00064

 O1_7        0.33714  1.04096  0.89888    1.00000    0.01027  0.03616  0.02437 -0.00260 -0.00009 -0.00552   0.02476
   0.00457   0.00026  0.00016  0.00013    0.00000    0.00136  0.00180  0.00159  0.00134  0.00114  0.00124   0.00067

 C1_7        0.21179  1.03553  0.90258    1.00000    0.01027  0.03155  0.02234 -0.00644 -0.00238 -0.00630   0.02137
   0.00579   0.00036  0.00021  0.00017    0.00000    0.00181  0.00223  0.00202  0.00169  0.00151  0.00161   0.00085

 C2_7        0.16239  1.03075  0.84242    1.00000    0.01917  0.03677  0.02864 -0.01185 -0.00246 -0.00642   0.02750
   0.00634   0.00040  0.00024  0.00019    0.00000    0.00206  0.00249  0.00227  0.00191  0.00172  0.00183   0.00095

 F1_7        0.20517  0.96968  0.83537    1.00000    0.04065  0.04131  0.04256 -0.02370 -0.00136 -0.00432   0.03935
   0.00431   0.00029  0.00015  0.00014    0.00000    0.00171  0.00167  0.00173  0.00139  0.00134  0.00134   0.00069

 F2_7        0.03597  1.04234  0.83647    1.00000    0.01791  0.05580  0.03337 -0.01667 -0.00673 -0.00854   0.03463
   0.00390   0.00024  0.00016  0.00012    0.00000    0.00129  0.00186  0.00151  0.00135  0.00109  0.00122   0.00066

 F3_7        0.20377  1.07747  0.79717    1.00000    0.02599  0.04837  0.01884 -0.00940 -0.00046 -0.00755   0.03101
   0.00396   0.00025  0.00015  0.00011    0.00000    0.00139  0.00169  0.00127  0.00117  0.00103  0.00122   0.00061

 C3_7        0.13777  1.10042  0.91579    1.00000    0.02206  0.03307  0.01998 -0.00887  0.00125 -0.00534   0.02472
   0.00631   0.00040  0.00023  0.00018    0.00000    0.00211  0.00234  0.00206  0.00173  0.00162  0.00178   0.00090

 F4_7        0.19995  1.11679  0.95699    1.00000    0.03809  0.04439  0.02492 -0.01669 -0.00314 -0.01169   0.03384
   0.00383   0.00027  0.00015  0.00012    0.00000    0.00160  0.00169  0.00138  0.00124  0.00116  0.00131   0.00064

 F5_7        0.12570  1.15499  0.86654    1.00000    0.03534  0.03029  0.02659 -0.00503 -0.00236 -0.00124   0.03194
   0.00421   0.00027  0.00014  0.00012    0.00000    0.00155  0.00145  0.00139  0.00113  0.00114  0.00119   0.00061

 F6_7        0.02191  1.09258  0.93392    1.00000    0.01999  0.04967  0.03748 -0.01439  0.00889 -0.00348   0.03566
   0.00446   0.00025  0.00016  0.00013    0.00000    0.00134  0.00179  0.00160  0.00136  0.00115  0.00123   0.00066

 C4_7        0.19271  0.97026  0.95288    1.00000    0.01906  0.03300  0.02862 -0.00494  0.00206 -0.00652   0.02753
   0.00669   0.00040  0.00023  0.00019    0.00000    0.00210  0.00240  0.00226  0.00188  0.00174  0.00177   0.00095

 F7_7        0.20236  0.98077  1.00573    1.00000    0.03231  0.04633  0.02263 -0.00008 -0.00027 -0.01239   0.03524
   0.00424   0.00027  0.00015  0.00012    0.00000    0.00153  0.00174  0.00136  0.00121  0.00112  0.00131   0.00066

 F8_7        0.07961  0.95242  0.94767    1.00000    0.02743  0.04816  0.04335 -0.00523  0.00191 -0.02309   0.03947
   0.00429   0.00026  0.00016  0.00013    0.00000    0.00148  0.00180  0.00173  0.00140  0.00125  0.00133   0.00072

 F9_7        0.28220  0.91790  0.95193    1.00000    0.03813  0.03223  0.04465  0.00113  0.00653  0.00039   0.04173
   0.00516   0.00029  0.00015  0.00014    0.00000    0.00169  0.00156  0.00181  0.00134  0.00137  0.00128   0.00073

 O1_8        0.57688  1.08177  0.89480    1.00000    0.01848  0.02431  0.01940 -0.00286 -0.00206 -0.00728   0.02106
   0.00424   0.00027  0.00015  0.00013    0.00000    0.00147  0.00152  0.00146  0.00119  0.00114  0.00120   0.00062

 C1_8        0.57655  1.14901  0.86626    1.00000    0.01566  0.02283  0.01770 -0.00405 -0.00263 -0.00593   0.01882
   0.00561   0.00036  0.00020  0.00017    0.00000    0.00188  0.00201  0.00190  0.00157  0.00147  0.00156   0.00081

 C2_8        0.48963  1.19600  0.89637    1.00000    0.02163  0.03147  0.02515 -0.00821  0.00323 -0.00603   0.02593
   0.00650   0.00040  0.00023  0.00019    0.00000    0.00210  0.00231  0.00214  0.00183  0.00168  0.00179   0.00091

 F1_8        0.36635  1.20001  0.88055    1.00000    0.01556  0.03711  0.04207 -0.01194  0.00213 -0.00367   0.03160
   0.00411   0.00023  0.00014  0.00013    0.00000    0.00124  0.00155  0.00163  0.00127  0.00110  0.00110   0.00061

 F2_8        0.51435  1.25974  0.88121    1.00000    0.03026  0.02904  0.05123 -0.01975  0.00292 -0.00707   0.03489
   0.00415   0.00027  0.00014  0.00014    0.00000    0.00150  0.00144  0.00180  0.00130  0.00128  0.00118   0.00065

 F3_8        0.50111  1.17069  0.95485    1.00000    0.03798  0.05605  0.02232 -0.01543  0.00517  0.00018   0.03887
   0.00459   0.00028  0.00016  0.00012    0.00000    0.00165  0.00193  0.00137  0.00131  0.00117  0.00141   0.00070

 C3_8        0.71569  1.16268  0.86863    1.00000    0.01993  0.02793  0.02554 -0.00484 -0.00103 -0.00973   0.02445
   0.00618   0.00039  0.00022  0.00019    0.00000    0.00207  0.00223  0.00215  0.00175  0.00165  0.00171   0.00090

[...]
                 C1_8            O1_8          C2_8          C3_8         

 C2_8 -          Distance        Angles
 F3_8      1.3217 (0.0049) 
 F2_8      1.3281 (0.0050)  108.65 (0.36)
 F1_8      1.3500 (0.0048)  106.97 (0.34) 107.14 (0.35)
 C1_8      1.5513 (0.0056)  110.85 (0.35) 112.67 (0.34) 110.32 (0.34)
                 C2_8            F3_8          F2_8          F1_8         

 F1_8 -          Distance        Angles
 C2_8      1.3500 (0.0048) 
                 F1_8           

 F2_8 -          Distance        Angles
 C2_8      1.3281 (0.0050) 
                 F2_8           

 F3_8 -          Distance        Angles
 C2_8      1.3217 (0.0049) 
                 F3_8           

 C3_8 -          Distance        Angles
 F4_8      1.3182 (0.0051) 
 F6_8      1.3307 (0.0048)  108.53 (0.35)
 F5_8      1.3407 (0.0048)  107.66 (0.34) 107.81 (0.34)
 C1_8      1.5578 (0.0051)  110.83 (0.33) 111.99 (0.33) 109.87 (0.33)
                 C3_8            F4_8          F6_8          F5_8         

 F4_8 -          Distance        Angles
 C3_8      1.3182 (0.0051) 
                 F4_8           

 F5_8 -          Distance        Angles
 C3_8      1.3407 (0.0048) 
                 F5_8           

 F6_8 -          Distance        Angles
 C3_8      1.3307 (0.0048) 
                 F6_8           

 C4_8 -          Distance        Angles
 F8_8      1.3310 (0.0049) 
 F7_8      1.3323 (0.0050)  108.31 (0.33)
 F9_8      1.3338 (0.0046)  107.13 (0.33) 107.05 (0.34)
 C1_8      1.5591 (0.0051)  112.86 (0.34) 110.91 (0.34) 110.34 (0.32)
                 C4_8            F8_8          F7_8          F9_8         

 F7_8 -          Distance        Angles
 C4_8      1.3323 (0.0050) 
                 F7_8           

 F8_8 -          Distance        Angles
 C4_8      1.3310 (0.0049) 
                 F8_8           

 F9_8 -          Distance        Angles
 C4_8      1.3338 (0.0046) 
                 F9_8           

 O1_9 -          Distance        Angles
 C1_9      1.3503 (0.0049) 
 Al3       1.7173 (0.0031)  143.35 (0.28)
                 O1_9            C1_9         

 C1_9 -          Distance        Angles
 O1_9      1.3503 (0.0048) 
 C3_9      1.5417 (0.0061)  107.94 (0.34)
 C2_9      1.5586 (0.0059)  110.06 (0.34) 110.32 (0.38)
 C4_9      1.5632 (0.0053)  110.69 (0.34) 109.77 (0.35) 108.07 (0.35)
                 C1_9            O1_9          C3_9          C2_9         

 C2_9 -          Distance        Angles
 F3_9      1.3199 (0.0053) 
 F1_9      1.3299 (0.0061)  108.54 (0.45)
 F2_9      1.3438 (0.0057)  107.38 (0.41) 107.63 (0.41)
 C1_9      1.5586 (0.0059)  110.41 (0.38) 110.89 (0.39) 111.85 (0.41)
                 C2_9            F3_9          F1_9          F2_9         

 F1_9 -          Distance        Angles
 C2_9      1.3299 (0.0061) 
                 F1_9           

 F2_9 -          Distance        Angles
 C2_9      1.3438 (0.0057) 
                 F2_9           

 F3_9 -          Distance        Angles
 C2_9      1.3199 (0.0054) 
                 F3_9           

 C3_9 -          Distance        Angles
 F4_9      1.3265 (0.0060) 
 F5_9      1.3313 (0.0057)  108.05 (0.42)
 F6_9      1.3485 (0.0054)  107.34 (0.42) 108.42 (0.42)
 C1_9      1.5417 (0.0061)  111.21 (0.40) 110.29 (0.40) 111.40 (0.38)
                 C3_9            F4_9          F5_9          F6_9         

 F4_9 -          Distance        Angles
 C3_9      1.3265 (0.0061) 
                 F4_9           

 F5_9 -          Distance        Angles
 C3_9      1.3313 (0.0057) 
                 F5_9           

 F6_9 -          Distance        Angles
 C3_9      1.3485 (0.0054) 
                 F6_9           

 C4_9 -          Distance        Angles
 F8_9      1.3190 (0.0052) 
 F9_9      1.3223 (0.0053)  108.58 (0.38)
 F7_9      1.3388 (0.0053)  107.18 (0.36) 107.67 (0.39)
 C1_9      1.5632 (0.0053)  113.35 (0.37) 110.16 (0.35) 109.70 (0.37)
                 C4_9            F8_9          F9_9          F7_9         

 F7_9 -          Distance        Angles
 C4_9      1.3388 (0.0054) 
                 F7_9           

 F8_9 -          Distance        Angles
 C4_9      1.3190 (0.0052) 
                 F8_9           

 F9_9 -          Distance        Angles
 C4_9      1.3223 (0.0053) 
                 F9_9           

 O1_10 -         Distance        Angles
 C1_10     1.3541 (0.0050) 
 Al4       1.7105 (0.0031)  148.30 (0.29)
                 O1_10           C1_10        

 C1_10 -         Distance        Angles
 O1_10     1.3541 (0.0050) 
 C4_10     1.5470 (0.0062)  110.13 (0.34)
 C2_10     1.5531 (0.0060)  111.25 (0.36) 110.23 (0.38)
 C3_10     1.5610 (0.0058)  107.64 (0.35) 108.69 (0.38) 108.82 (0.34)
                 C1_10           O1_10         C4_10         C2_10        

 C2_10 -         Distance        Angles
 F3_10     1.3144 (0.0058) 
 F1_10     1.3318 (0.0055)  107.46 (0.42)
 F2_10     1.3347 (0.0052)  108.89 (0.39) 107.18 (0.39)
 C1_10     1.5531 (0.0060)  110.90 (0.39) 110.54 (0.38) 111.70 (0.39)
                 C2_10           F3_10         F1_10         F2_10        

 F1_10 -         Distance        Angles
 C2_10     1.3318 (0.0055) 
                 F1_10          

 F2_10 -         Distance        Angles
 C2_10     1.3347 (0.0052) 
                 F2_10          

 F3_10 -         Distance        Angles
 C2_10     1.3144 (0.0058) 
                 F3_10          

 C3_10 -         Distance        Angles
 F5_10     1.3188 (0.0055) 
 F4_10     1.3319 (0.0055)  107.24 (0.41)
 F6_10     1.3429 (0.0054)  107.22 (0.38) 107.59 (0.38)
 C1_10     1.5610 (0.0057)  111.41 (0.37) 111.05 (0.35) 112.08 (0.40)
                 C3_10           F5_10         F4_10         F6_10        

 F4_10 -         Distance        Angles
 C3_10     1.3319 (0.0055) 
                 F4_10          

 F5_10 -         Distance        Angles
 C3_10     1.3188 (0.0055) 
                 F5_10          

 F6_10 -         Distance        Angles
 C3_10     1.3429 (0.0054) 
                 F6_10          

 C4_10 -         Distance        Angles
 F8_10     1.3221 (0.0055) 
 F9_10     1.3330 (0.0060)  108.23 (0.44)
 F7_10     1.3390 (0.0063)  108.11 (0.45) 107.59 (0.43)
 C1_10     1.5470 (0.0061)  113.04 (0.40) 109.17 (0.42) 110.53 (0.41)
                 C4_10           F8_10         F9_10         F7_10        

 F7_10 -         Distance        Angles
 C4_10     1.3390 (0.0064) 
                 F7_10          

 F8_10 -         Distance        Angles
 C4_10     1.3221 (0.0054) 
                 F8_10          

 F9_10 -         Distance        Angles
 C4_10     1.3330 (0.0060) 
                 F9_10          

 O1_11 -         Distance        Angles
 C1_11     1.3637 (0.0047) 
 Al4       1.7142 (0.0031)  143.45 (0.29)
                 O1_11           C1_11        

 C1_11 -         Distance        Angles
 O1_11     1.3637 (0.0047) 
 C2_11     1.5456 (0.0061)  111.01 (0.34)
 C3_11     1.5521 (0.0059)  110.67 (0.35) 109.43 (0.37)
 C4_11     1.5540 (0.0062)  107.56 (0.35) 108.79 (0.38) 109.33 (0.37)
                 C1_11           O1_11         C2_11         C3_11        

 C2_11 -         Distance        Angles
 F2_11     1.3352 (0.0051) 
 F1_11     1.3507 (0.0057)  108.92 (0.39)
 F3_11     1.3516 (0.0057)  106.33 (0.40) 107.98 (0.38)
 C1_11     1.5456 (0.0061)  113.08 (0.37) 110.51 (0.39) 109.82 (0.38)
                 C2_11           F2_11         F1_11         F3_11        

 F1_11 -         Distance        Angles
 C2_11     1.3507 (0.0057) 
                 F1_11          

 F2_11 -         Distance        Angles
 C2_11     1.3352 (0.0051) 
                 F2_11          

 F3_11 -         Distance        Angles
 C2_11     1.3516 (0.0057) 
                 F3_11          

 C3_11 -         Distance        Angles
 F4_11     1.3191 (0.0056) 
 F6_11     1.3330 (0.0053)  107.89 (0.40)
 F5_11     1.3498 (0.0060)  108.27 (0.42) 108.38 (0.40)
 C1_11     1.5521 (0.0059)  111.03 (0.38) 111.57 (0.39) 109.60 (0.39)
                 C3_11           F4_11         F6_11         F5_11        

 F4_11 -         Distance        Angles
 C3_11     1.3191 (0.0056) 
                 F4_11          

 F5_11 -         Distance        Angles
 C3_11     1.3498 (0.0060) 
                 F5_11          

 F6_11 -         Distance        Angles
 C3_11     1.3330 (0.0053) 
                 F6_11          

 C4_11 -         Distance        Angles
 F9_11     1.3207 (0.0057) 
 F8_11     1.3299 (0.0056)  107.40 (0.42)
 F7_11     1.3540 (0.0059)  107.95 (0.44) 109.04 (0.40)
 C1_11     1.5540 (0.0062)  111.20 (0.38) 111.87 (0.42) 109.27 (0.40)
                 C4_11           F9_11         F8_11         F7_11        

 F7_11 -         Distance        Angles
 C4_11     1.3540 (0.0059) 
                 F7_11          

 F8_11 -         Distance        Angles
 C4_11     1.3299 (0.0056) 
                 F8_11          

 F9_11 -         Distance        Angles
 C4_11     1.3207 (0.0057) 
                 F9_11          

 O1_12 -         Distance        Angles
 C1_12     1.3663 (0.0047) 
 Al4       1.7035 (0.0031)  150.27 (0.28)
                 O1_12           C1_12        

 C1_12 -         Distance        Angles
 O1_12     1.3663 (0.0047) 
 C2_12     1.5492 (0.0056)  108.95 (0.33)
 C4_12     1.5531 (0.0053)  108.17 (0.33) 110.51 (0.34)
 C3_12     1.5562 (0.0058)  110.17 (0.33) 108.90 (0.35) 110.13 (0.33)
                 C1_12           O1_12         C2_12         C4_12        

 C2_12 -         Distance        Angles
 F3_12     1.3218 (0.0051) 
 F1_12     1.3302 (0.0055)  107.35 (0.39)
 F2_12     1.3307 (0.0053)  108.63 (0.39) 107.63 (0.37)
 C1_12     1.5492 (0.0056)  110.70 (0.35) 110.62 (0.38) 111.74 (0.37)
                 C2_12           F3_12         F1_12         F2_12        

 F1_12 -         Distance        Angles
 C2_12     1.3302 (0.0055) 
                 F1_12          

 F2_12 -         Distance        Angles
 C2_12     1.3307 (0.0053) 
                 F2_12          

 F3_12 -         Distance        Angles
 C2_12     1.3218 (0.0051) 
                 F3_12          

 C3_12 -         Distance        Angles
 F4_12     1.3225 (0.0050) 
 F5_12     1.3315 (0.0050)  107.72 (0.35)
 F6_12     1.3337 (0.0048)  107.89 (0.36) 107.99 (0.35)
 C1_12     1.5562 (0.0058)  110.37 (0.35) 110.44 (0.35) 112.28 (0.34)
                 C3_12           F4_12         F5_12         F6_12        

 F4_12 -         Distance        Angles
 C3_12     1.3225 (0.0050) 
                 F4_12          

 F5_12 -         Distance        Angles
 C3_12     1.3315 (0.0050) 
                 F5_12          

 F6_12 -         Distance        Angles
 C3_12     1.3337 (0.0048) 
                 F6_12          

 C4_12 -         Distance        Angles
 F7_12     1.3278 (0.0051) 
 F9_12     1.3284 (0.0052)  108.07 (0.36)
 F8_12     1.3402 (0.0048)  108.04 (0.35) 107.68 (0.36)
 C1_12     1.5531 (0.0053)  110.86 (0.35) 110.47 (0.34) 111.58 (0.34)
                 C4_12           F7_12         F9_12         F8_12        

 F7_12 -         Distance        Angles
 C4_12     1.3278 (0.0051) 
                 F7_12          

 F8_12 -         Distance        Angles
 C4_12     1.3402 (0.0048) 
                 F8_12          

 F9_12 -         Distance        Angles
 C4_12     1.3284 (0.0052) 
                 F9_12          

 O1_13^b -       Distance        Angles
 C1_13^b   1.3655 (0.0140) 
 Al1       1.6784 (0.0330)  155.26 (3.31)
                 O1_13^b         C1_13^b      

 C1_13^b -       Distance        Angles
 O1_13^b   1.3655 (0.0140) 
 C2_13^b   1.5460 (0.0126)  110.00 (1.90)
 C3_13^b   1.5477 (0.0128)  109.11 (1.89) 110.43 (1.42)
 C4_13^b   1.5509 (0.0128)  108.16 (1.90) 110.20 (1.36) 108.89 (1.39)
                 C1_13^b         O1_13^b       C2_13^b       C3_13^b      

 C2_13^b -       Distance        Angles
 F2_13^b   1.3310 (0.0136) 
 F3_13^b   1.3330 (0.0136)  108.05 (2.05)
 F1_13^b   1.3340 (0.0135)  106.36 (2.00) 106.51 (1.85)
 C1_13^b   1.5460 (0.0126)  112.65 (1.98) 111.66 (1.84) 111.29 (1.53)
                 C2_13^b         F2_13^b       F3_13^b       F1_13^b      

 F1_13^b -       Distance        Angles
 C2_13^b   1.3340 (0.0135) 
                 F1_13^b        

 F2_13^b -       Distance        Angles
 C2_13^b   1.3310 (0.0136) 
                 F2_13^b        

 F3_13^b -       Distance        Angles
 C2_13^b   1.3330 (0.0136) 
                 F3_13^b        

 C3_13^b -       Distance        Angles
 F5_13^b   1.3269 (0.0135) 
 F4_13^b   1.3306 (0.0135)  108.98 (1.89)
 F6_13^b   1.3340 (0.0137)  108.13 (2.06) 108.06 (2.05)
 C1_13^b   1.5477 (0.0127)  109.75 (1.65) 110.95 (1.65) 110.90 (1.92)
                 C3_13^b         F5_13^b       F4_13^b       F6_13^b      

 F4_13^b -       Distance        Angles
 C3_13^b   1.3306 (0.0135) 
                 F4_13^b        

 F5_13^b -       Distance        Angles
 C3_13^b   1.3269 (0.0135) 
                 F5_13^b        

 F6_13^b -       Distance        Angles
 C3_13^b   1.3340 (0.0138) 
                 F6_13^b        

 C4_13^b -       Distance        Angles
 F8_13^b   1.3266 (0.0137) 
 F7_13^b   1.3274 (0.0134)  106.68 (1.90)
 F9_13^b   1.3296 (0.0135)  108.03 (1.97) 109.96 (1.88)
 C1_13^b   1.5509 (0.0127)  112.81 (1.78) 112.58 (1.64) 106.71 (1.66)
                 C4_13^b         F8_13^b       F7_13^b       F9_13^b      

 F7_13^b -       Distance        Angles
 C4_13^b   1.3274 (0.0133) 
                 F7_13^b        

 F8_13^b -       Distance        Angles
 C4_13^b   1.3266 (0.0137) 
                 F8_13^b        

 F9_13^b -       Distance        Angles
 C4_13^b   1.3296 (0.0136) 
                 F9_13^b        


 FMAP and GRID set by program

 FMAP   2   2  92
 GRID    -1.124  -1  -2     1.124   1   2

 R1 =  0.0873 for  19930 unique reflections after merging for Fourier


 Residue reliability criteria (side-chain)
 Residue  Mean(DD) Min(DD) Max(Peak)  Mean(U)   Max(U) Mean(Anis) Min(Anis) Max(SIMU)  Max(BUMP)  Sum(occ) N(ats)
 Ccf3_1     0.07    -0.02     0.55     0.048     0.064     0.290     0.138     0.061     0.000    12.414    14
 Ccf3_2     0.02    -0.07     0.70     0.045     0.066     0.429     0.237     0.040     0.000    14.000    14
 Ccf3_3     0.02    -0.17     0.64     0.048     0.062     0.394     0.208     0.052     0.000    14.000    14
 Ccf3_4     0.08     0.02     0.47     0.035     0.043     0.364     0.174     0.023     0.000    14.000    14
 Ccf3_5     0.04    -0.05     0.49     0.038     0.047     0.365     0.217     0.030     0.000    14.000    14
 Ccf3_6     0.09    -0.03     0.58     0.034     0.045     0.470     0.278     0.020     0.000    14.000    14
 Ccf3_7     0.09     0.00     0.48     0.032     0.042     0.387     0.215     0.021     0.000    14.000    14
 Ccf3_8     0.08    -0.06     0.57     0.029     0.039     0.409     0.266     0.026     0.000    14.000    14
 Ccf3_9     0.04    -0.07     0.76     0.043     0.057     0.332     0.147     0.052     0.000    14.000    14
 Ccf3_10    0.09    -0.04     0.57     0.044     0.061     0.324     0.164     0.043     0.000    14.000    14
 Ccf3_11    0.03    -0.08     0.58     0.041     0.054     0.325     0.150     0.027     0.000    14.000    14
 Ccf3_12    0.10     0.01     0.53     0.034     0.045     0.377     0.199     0.029     0.000    14.000    14
 Ccf3_13    0.03    -0.08     0.55     0.048     0.075     0.228     0.110     0.043     0.000     1.586    14


 Electron density synthesis with coefficients Fo-Fc

 Highest peak    1.00  at  0.8191  0.7353  0.3512  [  1.02 A from NI1 ]
 Deepest hole   -1.31  at  0.6811  0.2557  0.2301  [  0.79 A from NI2 ]


 Fourier peaks appended to .res file

              x       y       z       sof     U      Peak   Distances to nearest atoms (including eq.)

 Q1    1  -0.1809  0.7353  0.3512   1.00000  0.05    1.00   1.02 NI1^a  1.37 C1^a  1.61 C3^a  2.41 O1^a
 Q2    1   1.4015  0.7530  0.8190   1.00000  0.05    0.91   0.78 NI2  1.64 C8^a  1.87 C6^a  1.90 C5
 Q3    1  -0.1327  0.7018  0.3240   1.00000  0.05    0.88   0.94 NI1^a  1.60 C1^a  1.89 C4^a  2.42 C3^a
 Q4    1   1.3857  0.6922  0.8079   1.00000  0.05    0.84   0.92 NI2  1.51 C7^a  1.55 C8^a  2.44 C5
 Q5    1   1.3333  0.7237  0.8400   1.00000  0.05    0.82   1.06 NI2  1.34 C8^a  1.69 C6^a  2.36 O8^a
 Q6    1  -0.1154  0.7721  0.2708   1.00000  0.05    0.81   0.98 NI1^a  1.31 C2  1.78 C4^a  2.35 O2
 Q7    1  -0.1538  0.7991  0.2942   1.00000  0.05    0.79   0.96 NI1^a  1.59 C2  1.96 C3^a  2.44 C4^a
 Q8    1   0.5188  0.9707  0.9296   1.00000  0.05    0.76   0.90 O1_9  0.92 AL3  1.92 F3^a  2.21 O1_7
 Q9    1   1.3230  0.7649  0.8308   1.00000  0.05    0.75   1.06 C6^a  1.15 NI2  1.92 C8^a  2.10 O6^a
 Q10   1   1.3673  0.7912  0.7820   1.00000  0.05    0.71   1.02 NI2  1.62 C5  1.66 C6^a  2.63 C8^a
 Q11   1   0.9783  1.0236  0.5787   1.00000  0.05    0.70   0.85 O1_2  0.91 AL1  2.05 F1  2.08 O1_13^a
 Q12   1   1.4097  0.7514  0.7570   1.00000  0.05    0.67   1.01 NI2  1.25 C5  1.96 C7^a  2.28 O5
 Q13   1   1.0727  0.8514  0.7089   1.00000  0.05    0.64   1.30 F5_3  1.48 F3_3^a  1.64 C2_3  1.87 F2_3^a
 Q14   1   1.0231  0.9334  0.5910   1.00000  0.05    0.64   0.91 O1_3  0.94 AL1  1.92 O1_1^a  1.99 O1_13^a
 Q15   1   0.6192  0.4024  0.6858   1.00000  0.05    0.58   0.77 C1_6  0.79 C4_6  1.75 F8_6  1.79 F7_6
 Q16   1   0.8172  0.3753  0.8594   1.00000  0.05    0.58   0.95 F5_11  1.94 C3_11  2.01 F3_11  2.15 F2_11
 Q17   1   0.7044  0.8723  0.6378   1.00000  0.05    0.58   1.03 F9_3  1.89 F1_3^a  1.89 C4_3  2.27 F8_3
 Q18   1   0.7572  0.9873  0.6742   1.00000  0.05    0.57   1.13 F1_2  1.80 F1_3^a  2.07 C2_2  2.43 F3_2
 Q19   1   0.4875  1.0643  0.9073   1.00000  0.05    0.57   0.93 AL3  1.08 O1_8  1.77 O1_7  2.11 C1_8
 Q20   1   0.8645  0.5964  0.8475   1.00000  0.05    0.57   0.66 C1_10  0.91 C4_10  1.62 O1_10^a  1.74 F9_10

 Shortest distances between peaks (including symmetry equivalents)

      5   9  0.80      2   9  0.90      6   7  0.94      2  10  1.01      2   5  1.05      1   3  1.14     10  12  1.17
      4   5  1.21      9  10  1.24      2   4  1.39      2  12  1.47      4  12  1.50      1   7  1.65      3   6  1.65
      5  10  1.73      4   9  1.77     11  14  1.78      8  19  1.82      3   7  1.90      4  10  1.93      1   6  1.99
      9  12  2.03      5  12  2.07     13  14  2.80     17  18  2.88


 Time profile in seconds
 -----------------------

      0.00: Read and process instructions
      0.00: Fit rigid groups
      0.02: Interpret restraints etc.
      0.00: Generate connectivity array
      0.00: Analyse DFIX and DANG restraints
      0.03: Analyse SAME, SADI and NCSY restraints
      0.00: Generate CHIV restraints
      0.00: Check if bonds in residues restrained
      0.00: Generate DELU and RIGU restraints
      0.00: Generate SIMU restraints
      0.00: Generate ISOR restraints
      0.00: Analyse electron density
      0.00: Analyse other restraints etc.
      0.38: Read intensity data, sort/merge etc.
      0.00: Set up constraints
      0.00: OSF, H-atoms from difference map
      0.02: Set up l.s. refinement
      0.00: Generate idealized H-atoms
      0.73: Structure factors and derivatives
     10.88: Sum l.s. matrices
      0.00: Generate and apply antibumping restraints
      0.14: Apply other restraints
      3.98: Solve l.s. equations
      0.00: Generate HTAB table
      0.64: Other dependent quantities, CIF, tables
      0.05: Analysis of variance
      0.03: Merge reflections for Fourier and .fcf
      0.03: Fourier summations
      0.04: Peaksearch
      0.00: Analyse peaklist

 ** WARNING: These times are only approximate for multiple threads.
             To get better estimates run with -t1 **

   Please cite: G.M. Sheldrick (2015) "Crystal structure refinement with
   SHELXL", Acta Cryst., C71, 3-8 (Open Access) if SHELXL proves useful.

 +++++++++++++++++++++++++++++++++++++++++++++++++++++++++++++++++++++++++++++
 +  p-1_a         finished at 17:43:49   Total elapsed time:     17.00 secs  +
 +++++++++++++++++++++++++++++++++++++++++++++++++++++++++++++++++++++++++++++
